ITEM: TIMESTEP
0
ITEM: NUMBER OF ATOMS
34800
ITEM: BOX BOUNDS ff ff pp
-1.3717462190250001e+02 1.3717462190250001e+02
-3.4999800989999997e+01 3.4999800989999997e+01
-1.3282357717500000e+01 1.3282357717500000e+01
ITEM: ATOMS id type x y z c_pea c_csp 
1 2 -126.138 -0.00482997 11.0659 -3.37343 6.27222 
2 2 -123.582 0.0600597 11.0657 -3.53874 0.0157807 
3 2 -124.86 0.0590097 8.852 -3.52532 0.0157455 
4 2 -124.878 2.14626 11.7979 -3.52806 0.00392543 
5 2 -126.138 0.0580297 6.63831 -3.37334 6.49712 
6 2 -127.416 0.0570497 4.42462 -2.84177 26.052 
7 2 -127.416 0.0570497 8.85205 -2.84172 25.7999 
8 2 -126.156 2.14528 9.58431 -3.37602 6.48958 
9 2 -127.433 2.1443 7.37067 -2.85445 26.0357 
10 2 -127.433 2.1443 11.7981 -2.85152 26.0354 
11 2 -126.173 4.23267 12.5304 -3.37609 6.48595 
12 2 -127.451 4.23169 10.3168 -2.85572 26.0338 
13 2 -121.026 0.0620896 11.0656 -3.53823 0.0118203 
14 1 -118.47 0.0641896 11.0656 -3.53823 0.0118291 
15 1 -119.748 0.0631396 8.85187 -3.53823 0.0118291 
16 1 -119.767 2.15039 11.7976 -3.53832 5.20941e-07 
17 2 -123.582 0.0600597 6.63826 -3.53872 0.011829 
18 2 -121.026 0.0620896 6.63818 -3.53823 0.0118203 
19 2 -122.304 0.0610397 4.42449 -3.53824 0.0118026 
20 2 -122.304 0.0610397 8.85195 -3.53824 0.0118026 
21 2 -123.6 2.14731 9.58412 -3.53711 4.14033e-07 
22 2 -121.044 2.14934 9.58396 -3.53833 4.89782e-07 
23 2 -122.322 2.14829 7.37033 -3.53833 5.11631e-07 
24 2 -122.322 2.14829 11.7978 -3.53795 5.1765e-07 
25 2 -123.618 4.2347 12.5301 -3.54073 4.92785e-07 
26 2 -121.062 4.2368 12.5298 -3.54011 3.97057e-07 
27 2 -122.34 4.23575 10.3162 -3.54011 4.68856e-07 
28 2 -126.138 0.0580297 2.21085 -3.37335 6.49715 
29 2 -123.582 0.0600597 2.2108 -3.53872 0.0118291 
30 2 -124.86 0.0590097 -0.00289555 -3.52527 0.0118028 
31 2 -124.86 0.0590097 4.42454 -3.52528 0.0118027 
32 2 -126.156 2.14528 5.15688 -3.37481 6.48544 
33 2 -123.6 2.14731 5.15669 -3.53883 4.02742e-07 
34 2 -124.878 2.14626 2.94305 -3.52517 5.79083e-07 
35 2 -124.878 2.14626 7.37051 -3.5248 4.74368e-07 
36 2 -126.173 4.23267 8.10293 -3.37698 6.4857 
37 2 -123.618 4.2347 8.10264 -3.54061 4.85206e-07 
38 2 -124.895 4.23372 5.88905 -3.52695 5.29076e-07 
39 2 -124.895 4.23372 10.3165 -3.52623 4.12083e-07 
40 2 -126.19 6.32026 11.0491 -3.37685 6.4867 
41 2 -123.635 6.32229 11.0487 -3.5406 4.55526e-07 
42 2 -124.913 6.32124 8.83513 -3.52693 5.93547e-07 
43 2 -124.93 8.40891 11.7813 -3.52691 7.03667e-07 
44 2 -126.138 0.0580297 -2.21659 -3.37335 6.49691 
45 2 -127.416 0.0570497 -4.4303 -2.84179 26.0509 
46 2 -127.416 0.0570497 -0.00284242 -2.8418 26.0504 
47 2 -126.156 2.14528 0.729414 -3.37481 6.48536 
48 2 -127.433 2.1443 -1.48422 -2.85496 26.0342 
49 2 -127.433 2.1443 2.94321 -2.85496 26.0342 
50 2 -126.173 4.23267 3.67547 -3.37686 6.48608 
51 2 -127.451 4.23169 1.46188 -2.85668 26.0315 
52 2 -127.451 4.23169 5.88934 -2.85668 26.0312 
53 2 -126.19 6.32026 6.6216 -3.37685 6.48639 
54 2 -127.467 6.31921 4.40807 -2.8567 26.031 
55 2 -127.467 6.31921 8.83553 -2.85671 26.0307 
56 2 -126.207 8.40793 9.56784 -3.37685 6.48744 
57 2 -127.484 8.40688 7.35436 -2.85673 26.0293 
58 2 -127.484 8.40688 11.7818 -2.85673 26.029 
59 2 -126.224 10.4957 12.5142 -3.37684 6.48832 
60 2 -127.501 10.4947 10.3008 -2.85676 26.0277 
61 1 -115.914 0.0662896 11.0655 -3.53823 0.0117942 
62 1 -113.358 0.0684596 11.0654 -3.53823 0.0117856 
63 1 -114.636 0.0674096 8.85174 -3.53822 0.0118117 
64 1 -114.655 2.15466 11.7972 -3.53831 5.94832e-07 
65 1 -118.47 0.0641896 6.63812 -3.53823 0.0118291 
66 1 -115.914 0.0662896 6.63804 -3.53823 0.0117942 
67 1 -117.192 0.0652396 4.42435 -3.53823 0.0118117 
68 1 -117.192 0.0652396 8.85181 -3.53823 0.0118117 
69 1 -118.489 2.15144 9.58375 -3.53832 5.28875e-07 
70 1 -115.933 2.15361 9.58357 -3.53832 5.06659e-07 
71 1 -117.211 2.15249 7.36993 -3.53832 5.70434e-07 
72 1 -117.211 2.15249 11.7974 -3.53832 5.69848e-07 
73 1 -118.507 4.2389 12.5295 -3.5401 4.85758e-07 
74 1 -115.952 4.24107 12.5291 -3.5401 5.33419e-07 
75 1 -117.23 4.23995 10.3156 -3.5401 5.98946e-07 
76 2 -121.026 0.0620896 2.21072 -3.53824 0.0118203 
77 1 -118.47 0.0641896 2.21066 -3.53823 0.0118291 
78 1 -119.748 0.0631396 -0.00302838 -3.53823 0.011829 
79 1 -119.748 0.0631396 4.42443 -3.53823 0.011829 
80 2 -121.044 2.14934 5.1565 -3.53833 5.04601e-07 
81 1 -118.489 2.15144 5.15632 -3.53832 5.12645e-07 
82 1 -119.767 2.15039 2.94268 -3.53832 5.23552e-07 
83 1 -119.767 2.15039 7.37014 -3.53832 5.15084e-07 
84 2 -121.062 4.2368 8.10232 -3.54011 4.20303e-07 
85 1 -118.507 4.2389 8.102 -3.5401 4.97458e-07 
86 1 -119.785 4.23785 5.88844 -3.54011 4.7835e-07 
87 1 -119.785 4.23785 10.3159 -3.54011 4.50242e-07 
88 2 -121.08 6.32432 11.0482 -3.5401 6.36579e-07 
89 1 -118.525 6.32649 11.0478 -3.54011 5.96856e-07 
90 1 -119.803 6.32537 8.83431 -3.5401 6.70305e-07 
91 1 -119.821 8.41311 11.7803 -3.54011 6.99603e-07 
92 2 -123.582 0.0600597 -2.21667 -3.53872 0.0118291 
93 2 -121.026 0.0620896 -2.21672 -3.53824 0.0118203 
94 2 -122.304 0.0610397 -4.43041 -3.53825 0.0118027 
95 2 -122.304 0.0610397 -0.00297525 -3.53825 0.0118027 
96 2 -123.6 2.14731 0.729228 -3.53882 4.05988e-07 
97 2 -121.044 2.14934 0.729042 -3.53832 5.01778e-07 
98 2 -122.322 2.14829 -1.4846 -3.53833 5.22216e-07 
99 2 -122.322 2.14829 2.94287 -3.53833 5.07396e-07 
100 2 -123.618 4.2347 3.67518 -3.5406 4.93392e-07 
101 2 -121.062 4.2368 3.67488 -3.54011 4.11009e-07 
102 2 -122.34 4.23575 1.4613 -3.54012 4.55329e-07 
103 2 -122.34 4.23575 5.88876 -3.54011 4.44157e-07 
104 2 -123.635 6.32229 6.6212 -3.5406 4.68934e-07 
105 2 -121.08 6.32432 6.62078 -3.5401 6.49947e-07 
106 2 -122.358 6.32327 4.40727 -3.54012 6.66653e-07 
107 2 -122.358 6.32327 8.83473 -3.54012 6.3784e-07 
108 2 -123.652 8.40996 9.56734 -3.54061 5.35177e-07 
109 2 -121.098 8.41206 9.5668 -3.54012 6.56582e-07 
110 2 -122.375 8.41101 7.35335 -3.54012 5.63348e-07 
111 2 -122.375 8.41101 11.7808 -3.54012 5.42411e-07 
112 2 -123.669 10.4978 12.5136 -3.54061 7.50831e-07 
113 2 -121.115 10.4999 12.513 -3.54011 6.71881e-07 
114 2 -122.392 10.4989 10.2996 -3.54011 6.34266e-07 
115 2 -126.138 0.0580297 -6.64405 -3.37335 6.49732 
116 2 -123.582 0.0600597 -6.6441 -3.53872 0.011829 
117 2 -124.86 0.0590097 -8.85782 -3.52528 0.0118026 
118 2 -124.86 0.0590097 -4.43036 -3.52527 0.0118027 
119 2 -126.156 2.14528 -3.69805 -3.37481 6.48536 
120 2 -123.6 2.14731 -3.69821 -3.53883 4.0486e-07 
121 2 -124.878 2.14626 -5.91187 -3.52518 4.94127e-07 
122 2 -124.878 2.14626 -1.48441 -3.52517 4.63783e-07 
123 2 -126.173 4.23267 -0.751994 -3.37686 6.48573 
124 2 -123.618 4.2347 -0.752286 -3.54061 5.17468e-07 
125 2 -124.895 4.23372 -2.96584 -3.52696 3.96558e-07 
126 2 -124.895 4.23372 1.46159 -3.52695 3.83809e-07 
127 2 -126.19 6.32026 2.19414 -3.37685 6.4868 
128 2 -123.635 6.32229 2.19374 -3.54061 4.81676e-07 
129 2 -124.913 6.32124 -0.0197907 -3.52694 5.00459e-07 
130 2 -124.913 6.32124 4.40767 -3.52693 4.96453e-07 
131 2 -126.207 8.40793 5.14038 -3.37684 6.48731 
132 2 -123.652 8.40996 5.13987 -3.54061 5.5536e-07 
133 2 -124.93 8.40891 2.92642 -3.52692 5.774e-07 
134 2 -124.93 8.40891 7.35386 -3.52691 6.1132e-07 
135 2 -126.224 10.4957 8.08675 -3.37684 6.48829 
136 2 -123.669 10.4978 8.08617 -3.54062 7.10565e-07 
137 2 -124.947 10.4967 5.87274 -3.52691 6.90005e-07 
138 2 -124.947 10.4967 10.3002 -3.52689 7.48012e-07 
139 2 -126.24 12.5836 11.0333 -3.37684 6.48919 
140 2 -123.686 12.5857 11.0326 -3.54062 7.88061e-07 
141 2 -124.963 12.5847 8.81922 -3.5269 6.58947e-07 
142 2 -124.979 14.6728 11.7659 -3.52688 7.21329e-07 
143 2 -126.138 0.0580297 -11.0715 -3.37335 6.49711 
144 2 -127.416 0.0570497 13.2795 -2.84173 25.8 
145 2 -127.416 0.0570497 -8.85777 -2.84177 26.0524 
146 2 -126.156 2.14528 -8.12551 -3.37481 6.48556 
147 2 -127.433 2.1443 -10.3391 -2.85494 26.0355 
148 2 -127.433 2.1443 -5.91169 -2.85494 26.0358 
149 2 -126.173 4.23267 -5.17943 -3.37686 6.48602 
150 2 -127.451 4.23169 -7.39304 -2.85665 26.0337 
151 2 -127.451 4.23169 -2.96558 -2.85665 26.034 
152 2 -126.19 6.32026 -2.2333 -3.37685 6.4867 
153 2 -127.468 6.31921 -4.44685 -2.85668 26.0319 
154 2 -127.468 6.31921 -0.0193922 -2.85668 26.0324 
155 2 -126.207 8.40793 0.712917 -3.37685 6.48759 
156 2 -127.484 8.40688 -1.50056 -2.8567 26.0314 
157 2 -127.484 8.40688 2.9269 -2.8567 26.0318 
158 2 -126.224 10.4957 3.65929 -3.37684 6.4885 
159 2 -127.501 10.4947 1.44586 -2.85673 26.0298 
160 2 -127.501 10.4947 5.87333 -2.85673 26.0302 
161 2 -126.24 12.5836 6.60582 -3.37684 6.4894 
162 2 -127.517 12.5826 4.39242 -2.85675 26.0298 
163 2 -127.517 12.5826 8.81988 -2.85675 26.0303 
164 2 -126.256 14.6716 9.55254 -3.37683 6.4907 
165 2 -127.533 14.6706 7.33917 -2.85676 26.0302 
166 2 -127.533 14.6706 11.7666 -2.85676 26.0301 
167 2 -126.272 16.7598 12.4994 -3.37683 6.49209 
168 2 -127.549 16.7587 10.2861 -2.85679 26.0297 
169 1 -110.802 0.0706996 11.0653 -3.53823 0.0117855 
170 1 -108.246 0.0730096 11.0653 -3.53821 0.0118031 
171 1 -109.524 0.0718196 8.8516 -3.5382 0.0117677 
172 1 -109.544 2.15914 11.7968 -3.5383 7.37801e-07 
173 1 -113.358 0.0684596 6.63799 -3.53822 0.0117768 
174 1 -110.802 0.0706996 6.63791 -3.53823 0.0117767 
175 1 -112.08 0.0695796 4.42422 -3.53823 0.0117767 
176 1 -112.08 0.0695796 8.85168 -3.53823 0.0117855 
177 1 -113.378 2.15578 9.58335 -3.5383 5.33928e-07 
178 1 -110.822 2.15802 9.58314 -3.5383 5.75984e-07 
179 1 -112.1 2.1569 7.36953 -3.53831 5.33694e-07 
180 1 -112.1 2.1569 11.797 -3.5383 5.42684e-07 
181 1 -113.397 4.24324 12.5288 -3.5401 6.91682e-07 
182 1 -110.842 4.24548 12.5285 -3.54009 8.03541e-07 
183 1 -112.119 4.24436 10.3149 -3.5401 7.06085e-07 
184 1 -115.914 0.0662896 2.21061 -3.53823 0.0117941 
185 1 -113.358 0.0684596 2.21053 -3.53823 0.0117768 
186 1 -114.636 0.0674096 -0.0031612 -3.53823 0.0118117 
187 1 -114.636 0.0674096 4.4243 -3.53822 0.0118117 
188 1 -115.933 2.15361 5.15611 -3.53832 5.16539e-07 
189 1 -113.378 2.15578 5.15589 -3.53831 5.52276e-07 
190 1 -114.655 2.15466 2.94228 -3.53831 5.94233e-07 
191 1 -114.655 2.15466 7.36974 -3.53831 5.90704e-07 
192 1 -115.952 4.24107 8.10168 -3.5401 5.45966e-07 
193 1 -113.397 4.24324 8.10134 -3.54009 7.2288e-07 
194 1 -114.674 4.24212 5.8878 -3.5401 7.13254e-07 
195 1 -114.674 4.24212 10.3152 -3.5401 7.34425e-07 
196 1 -115.971 6.32866 11.0474 -3.5401 6.30657e-07 
197 1 -113.416 6.3309 11.0469 -3.54009 6.35286e-07 
198 1 -114.693 6.32978 8.83341 -3.5401 6.11073e-07 
199 1 -114.712 8.41752 11.7791 -3.5401 1.00024e-06 
200 1 -118.47 0.0641896 -2.2168 -3.53823 0.0118291 
201 1 -115.914 0.0662896 -2.21685 -3.53823 0.0117942 
202 1 -117.192 0.0652396 -4.43054 -3.53823 0.0118117 
203 1 -117.192 0.0652396 -0.00308151 -3.53823 0.0118117 
204 1 -118.489 2.15144 0.728856 -3.53832 5.31698e-07 
205 1 -115.933 2.15361 0.72867 -3.53832 4.98191e-07 
206 1 -117.211 2.15249 -1.48497 -3.53832 5.73257e-07 
207 1 -117.211 2.15249 2.94249 -3.53832 5.68317e-07 
208 1 -118.507 4.2389 3.67456 -3.54011 5.02278e-07 
209 1 -115.952 4.24107 3.67425 -3.5401 5.21267e-07 
210 1 -117.23 4.23995 1.46066 -3.5401 6.32819e-07 
211 1 -117.23 4.23995 5.88812 -3.5401 5.94712e-07 
212 1 -118.525 6.32649 6.62035 -3.54011 5.97602e-07 
213 1 -115.971 6.32866 6.6199 -3.5401 6.4336e-07 
214 1 -117.248 6.32754 4.4064 -3.5401 7.69868e-07 
215 1 -117.248 6.32754 8.83386 -3.54011 7.17061e-07 
216 1 -118.543 8.41423 9.56627 -3.54011 6.55562e-07 
217 1 -115.989 8.4164 9.56571 -3.5401 8.65551e-07 
218 1 -117.266 8.41535 7.35226 -3.5401 6.65865e-07 
219 1 -117.266 8.41535 11.7797 -3.5401 6.41964e-07 
220 1 -118.561 10.5021 12.5124 -3.54011 7.95925e-07 
221 1 -116.007 10.5044 12.5117 -3.5401 7.67958e-07 
222 1 -117.284 10.5032 10.2983 -3.54011 8.35867e-07 
223 2 -121.026 0.0620896 -6.64418 -3.53823 0.0118203 
224 1 -118.47 0.0641896 -6.64423 -3.53823 0.0118291 
225 1 -119.748 0.0631396 -8.85792 -3.53823 0.011829 
226 1 -119.748 0.0631396 -4.43049 -3.53823 0.0118291 
227 2 -121.044 2.14934 -3.69839 -3.53833 4.94016e-07 
228 1 -118.489 2.15144 -3.69858 -3.53832 5.16173e-07 
229 1 -119.767 2.15039 -5.91222 -3.53832 5.09438e-07 
230 1 -119.767 2.15039 -1.48476 -3.53832 5.10144e-07 
231 2 -121.062 4.2368 -0.752578 -3.54011 4.36294e-07 
232 1 -118.507 4.2389 -0.752897 -3.54011 4.99455e-07 
233 1 -119.785 4.23785 -2.96646 -3.5401 4.79056e-07 
234 1 -119.785 4.23785 1.46101 -3.54011 4.65648e-07 
235 2 -121.08 6.32432 2.19334 -3.54011 6.51199e-07 
236 1 -118.525 6.32649 2.19292 -3.54011 5.77882e-07 
237 1 -119.803 6.32544 -0.0206142 -3.5401 5.64197e-07 
238 1 -119.803 6.32544 4.40685 -3.5401 5.60628e-07 
239 2 -121.098 8.41206 5.13937 -3.54011 6.30272e-07 
240 1 -118.543 8.41423 5.13884 -3.5401 6.39132e-07 
241 1 -119.821 8.41311 2.92539 -3.54011 7.26163e-07 
242 1 -119.821 8.41311 7.35282 -3.54011 7.21423e-07 
243 2 -121.115 10.4999 8.08556 -3.54011 6.17198e-07 
244 1 -118.561 10.5021 8.08492 -3.54011 7.57578e-07 
245 1 -119.838 10.501 5.87149 -3.54011 8.12885e-07 
246 1 -119.838 10.501 10.299 -3.54011 7.88891e-07 
247 2 -121.132 12.5879 11.0319 -3.54011 8.88736e-07 
248 1 -118.578 12.5901 11.0312 -3.54011 8.81634e-07 
249 1 -119.855 12.589 8.81781 -3.54011 8.70804e-07 
250 1 -119.872 14.6772 11.7643 -3.54012 8.85533e-07 
251 2 -123.582 0.0600597 -11.0716 -3.53872 0.0118291 
252 2 -121.026 0.0620896 -11.0716 -3.53824 0.0118203 
253 2 -122.304 0.0610397 13.2794 -3.53824 0.0118027 
254 2 -122.304 0.0610397 -8.85787 -3.53824 0.0118026 
255 2 -123.6 2.14731 -8.12567 -3.53882 4.04154e-07 
256 2 -121.044 2.14934 -8.12585 -3.53833 5.04601e-07 
257 2 -122.322 2.14829 -10.3395 -3.53833 5.13113e-07 
258 2 -122.322 2.14829 -5.91203 -3.53833 5.11631e-07 
259 2 -123.618 4.2347 -5.17972 -3.54061 5.1394e-07 
260 2 -121.062 4.2368 -5.18004 -3.54012 4.51114e-07 
261 2 -122.34 4.23575 -7.3936 -3.54011 4.44157e-07 
262 2 -122.34 4.23575 -2.96614 -3.54011 4.58151e-07 
263 2 -123.635 6.32229 -2.23369 -3.5406 4.55606e-07 
264 2 -121.08 6.32432 -2.23412 -3.5401 6.82835e-07 
265 2 -122.358 6.32334 -4.44762 -3.54011 5.19575e-07 
266 2 -122.358 6.32334 -0.0201892 -3.54011 5.47803e-07 
267 2 -123.652 8.40996 0.712439 -3.5406 5.30541e-07 
268 2 -121.098 8.41206 0.711908 -3.54011 6.63946e-07 
269 2 -122.375 8.41101 -1.50154 -3.54012 5.65972e-07 
270 2 -122.375 8.41101 2.92589 -3.54012 5.76756e-07 
271 2 -123.669 10.4978 3.65871 -3.54061 7.13387e-07 
272 2 -121.115 10.4999 3.65809 -3.54011 6.46836e-07 
273 2 -122.392 10.4989 1.44467 -3.54011 6.73079e-07 
274 2 -122.392 10.4989 5.87213 -3.54011 6.56142e-07 
275 2 -123.686 12.5857 6.60516 -3.54061 7.57717e-07 
276 2 -121.132 12.5879 6.60444 -3.54012 9.0285e-07 
277 2 -122.409 12.5868 4.39107 -3.54011 7.2252e-07 
278 2 -122.409 12.5868 8.81853 -3.54011 6.97116e-07 
279 2 -123.702 14.6738 9.55177 -3.54062 8.4758e-07 
280 2 -121.149 14.676 9.551 -3.54012 7.75358e-07 
281 2 -122.426 14.6749 7.33765 -3.54013 8.627e-07 
282 2 -122.426 14.6749 11.7651 -3.54013 8.43054e-07 
283 2 -123.718 16.762 12.4986 -3.54062 7.93939e-07 
284 2 -121.165 16.7643 12.4978 -3.54012 9.11561e-07 
285 2 -122.442 16.7632 10.2844 -3.54012 8.28112e-07 
286 2 -124.86 0.0590097 13.2795 -3.52531 0.0157454 
287 2 -126.156 2.14528 -12.5529 -3.37298 6.48558 
288 2 -123.6 2.14731 -12.5531 -3.53844 3.98558e-07 
289 2 -124.878 2.14626 -10.3393 -3.52518 4.73104e-07 
290 2 -126.173 4.23267 -9.60689 -3.37686 6.48598 
291 2 -123.618 4.2347 -9.60718 -3.5406 4.88495e-07 
292 2 -124.895 4.23372 -11.8208 -3.52696 3.94024e-07 
293 2 -124.895 4.23372 -7.39331 -3.52696 3.95146e-07 
294 2 -126.19 6.32026 -6.66076 -3.37685 6.4867 
295 2 -123.635 6.32229 -6.66116 -3.5406 4.64034e-07 
296 2 -124.913 6.32124 -8.87469 -3.52694 4.93618e-07 
297 2 -124.913 6.32124 -4.44723 -3.52694 4.92696e-07 
298 2 -126.207 8.40793 -3.71452 -3.37685 6.48758 
299 2 -123.652 8.40996 -3.71502 -3.5406 5.55946e-07 
300 2 -124.93 8.40891 -5.9285 -3.52692 6.10567e-07 
301 2 -124.93 8.40891 -1.50104 -3.52692 5.95748e-07 
302 2 -126.224 10.4957 -0.768145 -3.37684 6.48858 
303 2 -123.669 10.4978 -0.768756 -3.54061 7.55728e-07 
304 2 -124.947 10.4967 -2.98218 -3.5269 7.34463e-07 
305 2 -124.947 10.4967 1.44528 -3.5269 7.31641e-07 
306 2 -126.24 12.5836 2.17839 -3.37684 6.48944 
307 2 -123.686 12.5857 2.1777 -3.54061 7.7183e-07 
308 2 -124.963 12.5847 -0.0356764 -3.52689 6.34248e-07 
309 2 -124.963 12.5847 4.39176 -3.52689 6.83646e-07 
310 2 -126.256 14.6716 5.12508 -3.37683 6.49067 
311 2 -123.702 14.6738 5.12433 -3.54062 8.0665e-07 
312 2 -124.979 14.6728 2.91099 -3.52688 7.05458e-07 
313 2 -124.979 14.6728 7.33842 -3.52688 7.49916e-07 
314 2 -126.272 16.7598 8.07198 -3.37683 6.49211 
315 2 -123.718 16.762 8.07116 -3.54062 8.14482e-07 
316 2 -124.995 16.7609 5.85784 -3.52687 7.65269e-07 
317 2 -124.995 16.7609 10.2853 -3.52687 7.37708e-07 
318 2 -126.287 18.8481 11.0191 -3.37682 6.49395 
319 2 -123.734 18.8503 11.0182 -3.54062 1.01568e-06 
320 2 -125.01 18.8491 8.80493 -3.52686 8.94449e-07 
321 2 -125.025 20.9375 11.7522 -3.52686 8.77194e-07 
322 2 -127.451 4.23169 -11.8205 -2.85665 26.0336 
323 2 -126.19 6.32026 -11.0882 -3.37685 6.48674 
324 2 -127.468 6.31921 13.263 -2.85668 26.0321 
325 2 -127.468 6.31921 -8.87429 -2.85668 26.0318 
326 2 -126.207 8.40793 -8.14198 -3.37685 6.48759 
327 2 -127.484 8.40688 -10.3555 -2.8567 26.0314 
328 2 -127.484 8.40688 -5.928 -2.8567 26.0314 
329 2 -126.224 10.4957 -5.19561 -3.37684 6.4885 
330 2 -127.501 10.4947 -7.40903 -2.85673 26.0297 
331 2 -127.501 10.4947 -2.9816 -2.85673 26.0298 
332 2 -126.24 12.5836 -2.24908 -3.37684 6.4894 
333 2 -127.517 12.5826 -4.46247 -2.85675 26.0298 
334 2 -127.517 12.5826 -0.0350123 -2.85675 26.0298 
335 2 -126.256 14.6716 0.697616 -3.37684 6.49063 
336 2 -127.533 14.6706 -1.51573 -2.85676 26.0301 
337 2 -127.533 14.6706 2.91173 -2.85676 26.03 
338 2 -126.272 16.7598 3.64452 -3.37683 6.49211 
339 2 -127.549 16.7587 1.4312 -2.85679 26.0296 
340 2 -127.549 16.7587 5.85866 -2.85679 26.0295 
341 2 -126.287 18.848 6.59164 -3.37683 6.4934 
342 2 -127.564 18.847 4.37832 -2.8568 26.0307 
343 2 -127.564 18.847 8.80578 -2.8568 26.0309 
344 2 -126.302 20.9364 9.53896 -3.37682 6.49513 
345 2 -127.578 20.9353 7.32567 -2.85681 26.0318 
346 2 -127.578 20.9353 11.7531 -2.85682 26.0322 
347 2 -126.316 23.0248 12.4865 -3.37682 6.49718 
348 2 -127.593 23.0236 10.2732 -2.85682 26.0348 
349 1 -105.69 0.0753196 11.0652 -3.53821 0.011777 
350 1 -103.134 0.0776996 11.0651 -3.53819 0.0117593 
351 1 -104.412 0.0765096 8.85144 -3.53819 0.0117679 
352 1 -104.434 2.16383 11.7963 -3.53828 1.08501e-06 
353 1 -108.246 0.0730096 6.63783 -3.53821 0.0118031 
354 1 -105.69 0.0753196 6.63775 -3.53821 0.0117769 
355 1 -106.968 0.0741296 4.42406 -3.53823 0.0117693 
356 1 -106.968 0.0741296 8.85152 -3.53823 0.0117692 
357 1 -108.267 2.16033 9.5829 -3.5383 1.06524e-06 
358 1 -105.711 2.16264 9.58266 -3.53827 1.36065e-06 
359 1 -106.989 2.16145 7.36905 -3.53831 1.09533e-06 
360 1 -106.989 2.16145 11.7965 -3.53831 1.06712e-06 
361 1 -108.287 4.24779 12.5281 -3.54009 1.29786e-06 
362 1 -105.732 4.25017 12.5277 -3.54007 6.76181e-07 
363 1 -107.009 4.24898 10.3141 -3.54007 1.07213e-06 
364 1 -110.802 0.0706996 2.21045 -3.53823 0.0117767 
365 1 -108.246 0.0730096 2.21037 -3.53821 0.0118031 
366 1 -109.524 0.0718196 -0.00332059 -3.5382 0.0117677 
367 1 -109.524 0.0718196 4.42414 -3.5382 0.0117677 
368 1 -110.822 2.15802 5.15568 -3.5383 5.75278e-07 
369 1 -108.267 2.16033 5.15547 -3.5383 1.0603e-06 
370 1 -109.544 2.15914 2.94186 -3.53829 7.27738e-07 
371 1 -109.544 2.15914 7.36929 -3.53829 7.49614e-07 
372 1 -110.842 4.24548 8.10099 -3.54009 8.12609e-07 
373 1 -108.287 4.24779 8.10062 -3.54009 1.26676e-06 
374 1 -109.564 4.24667 5.88709 -3.54009 5.97208e-07 
375 1 -109.564 4.24667 10.3145 -3.54009 6.16262e-07 
376 1 -110.861 6.33314 11.0464 -3.5401 1.1057e-06 
377 1 -108.306 6.33552 11.0459 -3.54008 7.69374e-07 
378 1 -109.584 6.33433 8.83242 -3.54008 8.30683e-07 
379 1 -109.603 8.42214 11.7779 -3.54008 2.01283e-06 
380 1 -113.358 0.0684596 -2.21693 -3.53822 0.0117768 
381 1 -110.802 0.0706996 -2.21701 -3.53822 0.0117767 
382 1 -112.08 0.0695796 -4.43068 -3.53823 0.0117767 
383 1 -112.08 0.0695796 -0.0032409 -3.53823 0.0117768 
384 1 -113.378 2.15578 0.728458 -3.53831 5.24754e-07 
385 1 -110.822 2.15802 0.728245 -3.53831 5.68927e-07 
386 1 -112.1 2.1569 -1.48539 -3.53831 5.47102e-07 
387 1 -112.1 2.1569 2.94207 -3.5383 5.4569e-07 
388 1 -113.397 4.24324 3.6739 -3.54009 6.89713e-07 
389 1 -110.842 4.24548 3.67353 -3.54009 8.25312e-07 
390 1 -112.119 4.24436 1.46 -3.5401 7.04673e-07 
391 1 -112.119 4.24436 5.88743 -3.5401 7.26549e-07 
392 1 -113.416 6.3309 6.61945 -3.5401 6.11293e-07 
393 1 -110.861 6.33314 6.61894 -3.5401 1.1177e-06 
394 1 -112.138 6.33202 4.40547 -3.5401 7.22005e-07 
395 1 -112.138 6.33202 8.83293 -3.5401 7.22005e-07 
396 1 -113.435 8.41871 9.56513 -3.5401 8.16226e-07 
397 1 -110.88 8.42102 9.56452 -3.54006 9.49945e-07 
398 1 -112.157 8.41983 7.35109 -3.54009 9.24673e-07 
399 1 -112.157 8.41983 11.7786 -3.54009 9.15146e-07 
400 1 -113.453 10.5067 12.511 -3.5401 8.95995e-07 
401 1 -110.899 10.509 12.5103 -3.5401 9.84567e-07 
402 1 -112.176 10.5078 10.2969 -3.54009 1.12432e-06 
403 1 -115.914 0.0662896 -6.64431 -3.53823 0.0117942 
404 1 -113.358 0.0684596 -6.64437 -3.53823 0.0117768 
405 1 -114.636 0.0674096 -8.85806 -3.53822 0.0118117 
406 1 -114.636 0.0674096 -4.43062 -3.53822 0.0118117 
407 1 -115.933 2.15361 -3.69879 -3.53832 5.05954e-07 
408 1 -113.378 2.15578 -3.699 -3.5383 5.33928e-07 
409 1 -114.655 2.15466 -5.91261 -3.53831 5.90704e-07 
410 1 -114.655 2.15466 -1.48518 -3.53831 5.95644e-07 
411 1 -115.952 4.24107 -0.753216 -3.5401 5.36086e-07 
412 1 -113.397 4.24324 -0.753561 -3.5401 6.93947e-07 
413 1 -114.674 4.24212 -2.96712 -3.5401 7.34425e-07 
414 1 -114.674 4.24212 1.46034 -3.5401 7.30191e-07 
415 1 -115.971 6.32866 2.19247 -3.5401 6.34186e-07 
416 1 -113.416 6.3309 2.19199 -3.5401 6.28935e-07 
417 1 -114.693 6.32978 -0.0215174 -3.5401 6.47768e-07 
418 1 -114.693 6.32978 4.40594 -3.5401 6.32949e-07 
419 1 -115.989 8.4164 5.13825 -3.5401 8.88838e-07 
420 1 -113.435 8.41871 5.13767 -3.5401 8.3528e-07 
421 1 -114.712 8.41752 2.92424 -3.54009 1.00113e-06 
422 1 -114.712 8.41752 7.35171 -3.5401 9.74318e-07 
423 1 -116.007 10.5044 8.08423 -3.5401 7.92268e-07 
424 1 -113.453 10.5067 8.08354 -3.5401 9.28802e-07 
425 1 -114.73 10.5055 5.87016 -3.5401 9.23214e-07 
426 1 -114.73 10.5055 10.2976 -3.54011 9.16157e-07 
427 1 -116.025 12.5924 11.0304 -3.54011 9.59442e-07 
428 1 -113.471 12.5947 11.0296 -3.5401 1.06033e-06 
429 1 -114.748 12.5936 8.8163 -3.54011 9.84849e-07 
430 1 -114.765 14.6818 11.7626 -3.5401 1.11286e-06 
431 1 -118.47 0.0641896 -11.0717 -3.53823 0.0118291 
432 1 -115.914 0.0662896 -11.0718 -3.53823 0.0117942 
433 1 -117.192 0.0652396 13.2792 -3.53823 0.0118117 
434 1 -117.192 0.0652396 -8.858 -3.53823 0.0118117 
435 1 -118.489 2.15144 -8.12604 -3.53832 5.12645e-07 
436 1 -115.933 2.15361 -8.12625 -3.53832 5.16539e-07 
437 1 -117.211 2.15249 -10.3399 -3.53832 5.64521e-07 
438 1 -117.211 2.15249 -5.91243 -3.53832 5.81725e-07 
439 1 -118.507 4.2389 -5.18033 -3.54011 4.90281e-07 
440 1 -115.952 4.24107 -5.18068 -3.5401 5.4526e-07 
441 1 -117.23 4.23995 -7.39424 -3.5401 5.95418e-07 
442 1 -117.23 4.23995 -2.96677 -3.5401 5.96124e-07 
443 1 -118.525 6.32649 -2.23454 -3.54011 5.87056e-07 
444 1 -115.971 6.32866 -2.235 -3.5401 6.30657e-07 
445 1 -117.248 6.32754 -4.4485 -3.5401 7.32467e-07 
446 1 -117.248 6.32754 -0.0210393 -3.5401 7.28233e-07 
447 1 -118.543 8.41423 0.711377 -3.5401 6.68771e-07 
448 1 -115.989 8.4164 0.710819 -3.5401 8.54965e-07 
449 1 -117.266 8.41535 -1.50263 -3.54011 6.41872e-07 
450 1 -117.266 8.41535 2.92483 -3.5401 6.34815e-07 
451 1 -118.561 10.5021 3.65746 -3.54011 7.78749e-07 
452 1 -116.007 10.5044 3.65679 -3.5401 7.46399e-07 
453 1 -117.284 10.5032 1.44339 -3.54011 8.35162e-07 
454 1 -117.284 10.5032 5.87086 -3.54011 7.99172e-07 
455 1 -118.578 12.5901 6.60372 -3.54011 8.66109e-07 
456 1 -116.025 12.5924 6.60295 -3.54011 9.79201e-07 
457 1 -117.301 12.5912 4.38961 -3.54011 1.00894e-06 
458 1 -117.301 12.5912 8.81707 -3.5401 9.8071e-07 
459 1 -118.595 14.6783 9.5502 -3.54011 8.45903e-07 
460 1 -116.042 14.6806 9.54935 -3.5401 1.00609e-06 
461 1 -117.319 14.6794 7.33606 -3.54011 1.032e-06 
462 1 -117.319 14.6794 11.7635 -3.54011 1.09306e-06 
463 1 -118.612 16.7666 12.4969 -3.54012 1.00731e-06 
464 1 -116.059 16.7689 12.496 -3.54012 1.13992e-06 
465 1 -117.335 16.7677 10.2827 -3.54012 1.05763e-06 
466 1 -119.748 0.0631396 13.2793 -3.53823 0.0118291 
467 2 -121.044 2.14934 -12.5533 -3.53833 5.00409e-07 
468 1 -118.489 2.15144 -12.5535 -3.53832 5.13647e-07 
469 1 -119.767 2.15039 -10.3397 -3.53832 5.21759e-07 
470 2 -121.062 4.2368 -9.60747 -3.54011 4.1017e-07 
471 1 -118.507 4.2389 -9.60779 -3.54011 4.99716e-07 
472 1 -119.785 4.23785 -11.8214 -3.5401 4.55366e-07 
473 1 -119.785 4.23785 -7.39392 -3.54011 4.79056e-07 
474 2 -121.08 6.32432 -6.66158 -3.5401 6.69547e-07 
475 1 -118.525 6.32649 -6.66201 -3.54011 5.92702e-07 
476 1 -119.803 6.32544 -8.87551 -3.5401 5.60064e-07 
477 1 -119.803 6.32544 -4.44805 -3.5401 5.50789e-07 
478 2 -121.098 8.41206 -3.71553 -3.54011 6.57594e-07 
479 1 -118.543 8.41423 -3.71608 -3.5401 6.70182e-07 
480 1 -119.821 8.41311 -5.92954 -3.54011 7.43805e-07 
481 1 -119.821 8.41311 -1.50208 -3.54011 7.2334e-07 
482 2 -121.115 10.4999 -0.769367 -3.54011 6.70124e-07 
483 1 -118.561 10.5021 -0.770005 -3.54011 7.97802e-07 
484 1 -119.838 10.501 -2.9834 -3.54011 7.93125e-07 
485 1 -119.838 10.501 1.44406 -3.54011 7.9242e-07 
486 2 -121.132 12.5879 2.177 -3.54011 8.85208e-07 
487 1 -118.578 12.5901 2.17626 -3.54011 8.68226e-07 
488 1 -119.855 12.589 -0.0370843 -3.54012 8.34814e-07 
489 1 -119.855 12.589 4.39035 -3.54011 8.70804e-07 
490 2 -121.149 14.676 5.12354 -3.54012 7.97234e-07 
491 1 -118.595 14.6783 5.12274 -3.54012 8.81893e-07 
492 1 -119.872 14.6772 2.90942 -3.54012 8.5914e-07 
493 1 -119.872 14.6772 7.33688 -3.54012 8.47849e-07 
494 2 -121.165 16.7643 8.07031 -3.54012 9.30042e-07 
495 1 -118.612 16.7666 8.06943 -3.54012 1.05466e-06 
496 1 -119.888 16.7654 5.85616 -3.54012 9.31292e-07 
497 1 -119.888 16.7654 10.2836 -3.54012 9.85629e-07 
498 2 -121.181 18.8526 11.0173 -3.54012 9.90331e-07 
499 1 -118.628 18.855 11.0164 -3.54012 1.037e-06 
500 1 -119.904 18.8538 8.80312 -3.54012 9.8814e-07 
501 1 -119.92 20.9422 11.7503 -3.54013 1.02518e-06 
502 2 -122.34 4.23575 -11.8211 -3.54011 4.45357e-07 
503 2 -123.635 6.32229 -11.0886 -3.5406 4.72547e-07 
504 2 -121.08 6.32432 -11.089 -3.54011 6.46059e-07 
505 2 -122.358 6.32327 13.2622 -3.54011 6.67154e-07 
506 2 -122.358 6.32327 -8.87509 -3.54011 6.72581e-07 
507 2 -123.652 8.40996 -8.14248 -3.5406 5.56065e-07 
508 2 -121.098 8.41206 -8.14299 -3.54011 6.31683e-07 
509 2 -122.375 8.41101 -10.3564 -3.54012 5.37443e-07 
510 2 -122.375 8.41101 -5.92901 -3.54012 5.87142e-07 
511 2 -123.669 10.4978 -5.19619 -3.54061 7.10565e-07 
512 2 -121.115 10.4999 -5.1968 -3.54012 6.27077e-07 
513 2 -122.392 10.4989 -7.41023 -3.54011 6.56142e-07 
514 2 -122.392 10.4989 -2.98277 -3.54011 6.46263e-07 
515 2 -123.686 12.5857 -2.24977 -3.54061 7.88061e-07 
516 2 -121.132 12.5879 -2.25046 -3.54011 8.88736e-07 
517 2 -122.409 12.5868 -4.46383 -3.54011 6.97116e-07 
518 2 -122.409 12.5868 -0.0363671 -3.54012 6.703e-07 
519 2 -123.702 14.6738 0.696872 -3.54062 8.48286e-07 
520 2 -121.149 14.676 0.696102 -3.54012 7.7818e-07 
521 2 -122.426 14.6749 -1.51724 -3.54013 8.54938e-07 
522 2 -122.426 14.6749 2.91022 -3.54013 8.11891e-07 
523 2 -123.718 16.762 3.6437 -3.54062 8.58234e-07 
524 2 -121.165 16.7643 3.64285 -3.54012 9.56153e-07 
525 2 -122.442 16.7632 1.42955 -3.54012 8.17527e-07 
526 2 -122.442 16.7632 5.85702 -3.54013 7.92828e-07 
527 2 -123.734 18.8503 6.59076 -3.54062 9.29198e-07 
528 2 -121.181 18.8526 6.58986 -3.54012 1.0115e-06 
529 2 -122.457 18.8515 4.37659 -3.54012 8.9316e-07 
530 2 -122.457 18.8515 8.80402 -3.54012 9.2911e-07 
531 2 -123.749 20.9387 9.53803 -3.54063 9.13171e-07 
532 2 -121.196 20.941 9.5371 -3.54013 9.89644e-07 
533 2 -122.472 20.9398 7.32384 -3.54013 9.94945e-07 
534 2 -122.472 20.9398 11.7513 -3.54013 9.74052e-07 
535 2 -123.763 23.0271 12.4855 -3.54064 9.41775e-07 
536 2 -121.211 23.0295 12.4846 -3.54013 9.88383e-07 
537 2 -122.487 23.0283 10.2714 -3.54013 8.66427e-07 
538 2 -124.913 6.32124 13.2626 -3.52694 5.04366e-07 
539 2 -126.207 8.40793 -12.5694 -3.37685 6.48734 
540 2 -123.652 8.40996 -12.5699 -3.54061 5.28473e-07 
541 2 -124.93 8.40891 -10.3559 -3.52692 5.90385e-07 
542 2 -126.224 10.4957 -9.62304 -3.37684 6.48858 
543 2 -123.669 10.4978 -9.62365 -3.54061 7.27063e-07 
544 2 -124.947 10.4967 -11.8371 -3.5269 7.25967e-07 
545 2 -124.947 10.4967 -7.40962 -3.5269 6.893e-07 
546 2 -126.24 12.5836 -6.67654 -3.37684 6.4894 
547 2 -123.686 12.5857 -6.6772 -3.54061 7.57717e-07 
548 2 -124.963 12.5847 -8.8906 -3.52689 6.89644e-07 
549 2 -124.963 12.5847 -4.46314 -3.52689 6.58947e-07 
550 2 -126.256 14.6716 -3.72982 -3.37683 6.4907 
551 2 -123.702 14.6738 -3.73059 -3.54062 8.55342e-07 
552 2 -124.979 14.6728 -5.94393 -3.52688 7.49916e-07 
553 2 -124.979 14.6728 -1.51647 -3.52688 7.21689e-07 
554 2 -126.272 16.7598 -0.782942 -3.37683 6.49211 
555 2 -123.718 16.762 -0.783739 -3.54062 8.03191e-07 
556 2 -124.995 16.7609 -2.99706 -3.52687 7.43353e-07 
557 2 -124.995 16.7609 1.4304 -3.52687 7.18694e-07 
558 2 -126.287 18.848 2.16417 -3.37683 6.49336 
559 2 -123.734 18.8503 2.1633 -3.54062 9.48252e-07 
560 2 -125.01 18.8491 -0.0499948 -3.52686 9.15818e-07 
561 2 -125.01 18.8491 4.37747 -3.52686 8.70694e-07 
562 2 -126.302 20.9364 5.1115 -3.37682 6.49538 
563 2 -123.749 20.9386 5.1106 -3.54063 9.72357e-07 
564 2 -125.025 20.9375 2.89731 -3.52686 9.14239e-07 
565 2 -125.025 20.9375 7.32477 -3.52686 8.90911e-07 
566 2 -126.316 23.0248 8.05904 -3.37683 6.49714 
567 2 -123.763 23.0271 8.05811 -3.54063 8.85532e-07 
568 2 -125.04 23.0259 5.84485 -3.52685 8.37944e-07 
569 2 -125.04 23.0259 10.2723 -3.52684 8.0262e-07 
570 2 -126.33 25.1133 11.0068 -3.37681 6.49799 
571 2 -123.778 25.1156 11.0059 -3.54064 1.00685e-06 
572 2 -125.054 25.1145 8.79263 -3.52684 9.22247e-07 
573 2 -125.068 27.203 11.7406 -3.51817 9.10581e-07 