ITEM: TIMESTEP
248
ITEM: NUMBER OF ATOMS
34800
ITEM: BOX BOUNDS ff ff pp
-1.3717462190250001e+02 1.3717462190250001e+02
-3.4999800989999997e+01 3.4999800989999997e+01
-1.3282357717500000e+01 1.3282357717500000e+01
ITEM: ATOMS id type x y z c_pea c_csp 
1 2 -126.138 -0.00482997 11.0659 -3.37343 6.27222 
2 2 -123.582 0.0600597 11.0657 -3.53926 0.0157807 
3 2 -124.86 0.0590097 8.852 -3.5253 0.0157455 
4 2 -124.878 2.14626 11.7979 -3.52806 0.00392543 
5 2 -126.138 0.0580297 6.63831 -3.37334 6.49712 
6 2 -127.416 0.0570497 4.42462 -2.84177 26.052 
7 2 -127.416 0.0570497 8.85205 -2.84172 25.7999 
8 2 -126.156 2.14528 9.58431 -3.37602 6.48958 
9 2 -127.433 2.1443 7.37067 -2.85445 26.0357 
10 2 -127.433 2.1443 11.7981 -2.85152 26.0354 
11 2 -126.173 4.23267 12.5304 -3.37609 6.48595 
12 2 -127.451 4.23169 10.3168 -2.85572 26.0338 
13 2 -121.026 0.0620896 11.0656 -3.53879 0.0135398 
14 1 -118.476 0.0368016 11.0629 -3.53856 0.000919292 
15 1 -119.757 0.0334213 8.84896 -3.53942 0.00542517 
16 1 -119.766 2.13765 11.8002 -3.53908 0.000633403 
17 2 -123.582 0.0600597 6.63826 -3.53924 0.011829 
18 2 -121.026 0.0620896 6.63818 -3.53879 0.0135402 
19 2 -122.304 0.0610397 4.42449 -3.53986 0.0127658 
20 2 -122.304 0.0610397 8.85195 -3.53986 0.0127658 
21 2 -123.6 2.14731 9.58412 -3.53706 4.14033e-07 
22 2 -121.044 2.14934 9.58396 -3.53895 0.00191198 
23 2 -122.322 2.14829 7.37033 -3.538 0.000167881 
24 2 -122.322 2.14829 11.7978 -3.53761 0.000167937 
25 2 -123.618 4.2347 12.5301 -3.54066 4.92785e-07 
26 2 -121.062 4.2368 12.5298 -3.53992 0.000615321 
27 2 -122.34 4.23575 10.3162 -3.53992 8.00192e-05 
28 2 -126.138 0.0580297 2.21085 -3.37335 6.49715 
29 2 -123.582 0.0600597 2.2108 -3.53924 0.0118291 
30 2 -124.86 0.0590097 -0.00289555 -3.52525 0.0118028 
31 2 -124.86 0.0590097 4.42454 -3.52526 0.0118027 
32 2 -126.156 2.14528 5.15688 -3.37481 6.48544 
33 2 -123.6 2.14731 5.15669 -3.53877 4.02742e-07 
34 2 -124.878 2.14626 2.94305 -3.52517 5.79083e-07 
35 2 -124.878 2.14626 7.37051 -3.5248 4.74368e-07 
36 2 -126.173 4.23267 8.10293 -3.37698 6.4857 
37 2 -123.618 4.2347 8.10264 -3.54053 4.85206e-07 
38 2 -124.895 4.23372 5.88905 -3.52695 5.29076e-07 
39 2 -124.895 4.23372 10.3165 -3.52623 4.12083e-07 
40 2 -126.19 6.32026 11.0491 -3.37685 6.4867 
41 2 -123.635 6.32229 11.0487 -3.54053 4.55526e-07 
42 2 -124.913 6.32124 8.83513 -3.52693 5.93547e-07 
43 2 -124.93 8.40891 11.7813 -3.52691 7.03667e-07 
44 2 -126.138 0.0580297 -2.21659 -3.37335 6.49691 
45 2 -127.416 0.0570497 -4.4303 -2.84179 26.0509 
46 2 -127.416 0.0570497 -0.00284242 -2.8418 26.0504 
47 2 -126.156 2.14528 0.729414 -3.37481 6.48536 
48 2 -127.433 2.1443 -1.48422 -2.85496 26.0342 
49 2 -127.433 2.1443 2.94321 -2.85496 26.0342 
50 2 -126.173 4.23267 3.67547 -3.37686 6.48608 
51 2 -127.451 4.23169 1.46188 -2.85668 26.0315 
52 2 -127.451 4.23169 5.88934 -2.85668 26.0312 
53 2 -126.19 6.32026 6.6216 -3.37685 6.48639 
54 2 -127.467 6.31921 4.40807 -2.8567 26.031 
55 2 -127.467 6.31921 8.83553 -2.85671 26.0307 
56 2 -126.207 8.40793 9.56784 -3.37685 6.48744 
57 2 -127.484 8.40688 7.35436 -2.85673 26.0293 
58 2 -127.484 8.40688 11.7818 -2.85673 26.029 
59 2 -126.224 10.4957 12.5142 -3.37684 6.48832 
60 2 -127.501 10.4947 10.3008 -2.85676 26.0277 
61 1 -115.92 0.0374495 11.0597 -3.53998 2.69308e-05 
62 1 -113.363 0.039446 11.0565 -3.54009 8.54537e-06 
63 1 -114.642 0.0385184 8.84435 -3.54014 1.65996e-05 
64 1 -114.659 2.12881 11.7915 -3.53997 7.63303e-06 
65 1 -118.476 0.0367997 6.63545 -3.53856 0.000919484 
66 1 -115.92 0.0374486 6.63221 -3.53998 2.69373e-05 
67 1 -117.199 0.0365854 4.42009 -3.53989 9.03082e-05 
68 1 -117.199 0.0365862 8.84754 -3.53989 9.03333e-05 
69 1 -118.493 2.1282 9.5839 -3.54093 0.000865367 
70 1 -115.937 2.12818 9.57974 -3.54002 1.69682e-05 
71 1 -117.214 2.12857 7.36822 -3.53969 0.000123824 
72 1 -117.214 2.12857 11.7957 -3.53969 0.000123798 
73 1 -118.507 4.22331 12.5311 -3.53998 0.000195644 
74 1 -115.953 4.21951 12.5271 -3.53991 2.45964e-05 
75 1 -117.23 4.21977 10.3153 -3.54027 0.000128164 
76 2 -121.026 0.0620896 2.21072 -3.53879 0.0135402 
77 1 -118.476 0.0367993 2.208 -3.53856 0.000919445 
78 1 -119.757 0.0334192 -0.00595386 -3.53942 0.00542449 
79 1 -119.757 0.03342 4.4215 -3.53942 0.00542552 
80 2 -121.044 2.14934 5.1565 -3.53895 0.00191229 
81 1 -118.493 2.1282 5.15645 -3.54093 0.000865644 
82 1 -119.766 2.13765 2.94533 -3.53908 0.000633233 
83 1 -119.766 2.13765 7.37278 -3.53908 0.000633672 
84 2 -121.062 4.2368 8.10232 -3.53991 0.000615945 
85 1 -118.507 4.22331 8.10364 -3.53998 0.000195847 
86 1 -119.784 4.22903 5.88986 -3.54006 0.000149433 
87 1 -119.784 4.22903 10.3173 -3.54006 0.000149116 
88 2 -121.08 6.32432 11.0482 -3.54001 0.000326251 
89 1 -118.524 6.31453 11.0489 -3.54014 6.68452e-05 
90 1 -119.801 6.31918 8.83515 -3.54009 4.61871e-05 
91 1 -119.819 8.40838 11.7807 -3.54012 2.78257e-05 
92 2 -123.582 0.0600597 -2.21667 -3.53924 0.0118291 
93 2 -121.026 0.0620896 -2.21672 -3.53879 0.0135403 
94 2 -122.304 0.0610397 -4.43041 -3.53986 0.0127658 
95 2 -122.304 0.0610397 -0.00297525 -3.53986 0.0127656 
96 2 -123.6 2.14731 0.729228 -3.53876 4.05988e-07 
97 2 -121.044 2.14934 0.729042 -3.53895 0.0019122 
98 2 -122.322 2.14829 -1.4846 -3.538 0.000167929 
99 2 -122.322 2.14829 2.94287 -3.538 0.000167892 
100 2 -123.618 4.2347 3.67518 -3.54053 4.93392e-07 
101 2 -121.062 4.2368 3.67488 -3.53991 0.000615293 
102 2 -122.34 4.23575 1.4613 -3.53992 8.00161e-05 
103 2 -122.34 4.23575 5.88876 -3.53992 7.99807e-05 
104 2 -123.635 6.32229 6.6212 -3.54052 4.68934e-07 
105 2 -121.08 6.32432 6.62078 -3.54001 0.00032648 
106 2 -122.358 6.32327 4.40727 -3.53991 4.04961e-05 
107 2 -122.358 6.32327 8.83473 -3.53992 4.04771e-05 
108 2 -123.652 8.40996 9.56734 -3.54053 5.35177e-07 
109 2 -121.098 8.41206 9.5668 -3.54005 0.000195207 
110 2 -122.375 8.41101 7.35335 -3.53995 2.51441e-05 
111 2 -122.375 8.41101 11.7808 -3.53995 2.51058e-05 
112 2 -123.669 10.4978 12.5136 -3.54054 7.50831e-07 
113 2 -121.115 10.4999 12.513 -3.54008 0.000128577 
114 2 -122.392 10.4989 10.2996 -3.53996 1.71892e-05 
115 2 -126.138 0.0580297 -6.64405 -3.37335 6.49732 
116 2 -123.582 0.0600597 -6.6441 -3.53925 0.011829 
117 2 -124.86 0.0590097 -8.85782 -3.52526 0.0118026 
118 2 -124.86 0.0590097 -4.43036 -3.52525 0.0118027 
119 2 -126.156 2.14528 -3.69805 -3.37481 6.48536 
120 2 -123.6 2.14731 -3.69821 -3.53877 4.0486e-07 
121 2 -124.878 2.14626 -5.91187 -3.52518 4.94127e-07 
122 2 -124.878 2.14626 -1.48441 -3.52517 4.63783e-07 
123 2 -126.173 4.23267 -0.751994 -3.37686 6.48573 
124 2 -123.618 4.2347 -0.752286 -3.54054 5.17468e-07 
125 2 -124.895 4.23372 -2.96584 -3.52696 3.96558e-07 
126 2 -124.895 4.23372 1.46159 -3.52695 3.83809e-07 
127 2 -126.19 6.32026 2.19414 -3.37685 6.4868 
128 2 -123.635 6.32229 2.19374 -3.54053 4.81676e-07 
129 2 -124.913 6.32124 -0.0197907 -3.52694 5.00459e-07 
130 2 -124.913 6.32124 4.40767 -3.52693 4.96453e-07 
131 2 -126.207 8.40793 5.14038 -3.37684 6.48731 
132 2 -123.652 8.40996 5.13987 -3.54054 5.5536e-07 
133 2 -124.93 8.40891 2.92642 -3.52692 5.774e-07 
134 2 -124.93 8.40891 7.35386 -3.52691 6.1132e-07 
135 2 -126.224 10.4957 8.08675 -3.37684 6.48829 
136 2 -123.669 10.4978 8.08617 -3.54054 7.10565e-07 
137 2 -124.947 10.4967 5.87274 -3.52691 6.90005e-07 
138 2 -124.947 10.4967 10.3002 -3.52689 7.48012e-07 
139 2 -126.24 12.5836 11.0333 -3.37684 6.48919 
140 2 -123.686 12.5857 11.0326 -3.54054 7.88061e-07 
141 2 -124.963 12.5847 8.81922 -3.5269 6.58947e-07 
142 2 -124.979 14.6728 11.7659 -3.52688 7.21329e-07 
143 2 -126.138 0.0580297 -11.0715 -3.37335 6.49711 
144 2 -127.416 0.0570497 13.2795 -2.84173 25.8 
145 2 -127.416 0.0570497 -8.85777 -2.84177 26.0524 
146 2 -126.156 2.14528 -8.12551 -3.37481 6.48556 
147 2 -127.433 2.1443 -10.3391 -2.85494 26.0355 
148 2 -127.433 2.1443 -5.91169 -2.85494 26.0358 
149 2 -126.173 4.23267 -5.17943 -3.37686 6.48602 
150 2 -127.451 4.23169 -7.39304 -2.85665 26.0337 
151 2 -127.451 4.23169 -2.96558 -2.85665 26.034 
152 2 -126.19 6.32026 -2.2333 -3.37685 6.4867 
153 2 -127.468 6.31921 -4.44685 -2.85668 26.0319 
154 2 -127.468 6.31921 -0.0193922 -2.85668 26.0324 
155 2 -126.207 8.40793 0.712917 -3.37685 6.48759 
156 2 -127.484 8.40688 -1.50056 -2.8567 26.0314 
157 2 -127.484 8.40688 2.9269 -2.8567 26.0318 
158 2 -126.224 10.4957 3.65929 -3.37684 6.4885 
159 2 -127.501 10.4947 1.44586 -2.85673 26.0298 
160 2 -127.501 10.4947 5.87333 -2.85673 26.0302 
161 2 -126.24 12.5836 6.60582 -3.37684 6.4894 
162 2 -127.517 12.5826 4.39242 -2.85675 26.0298 
163 2 -127.517 12.5826 8.81988 -2.85675 26.0303 
164 2 -126.256 14.6716 9.55254 -3.37683 6.4907 
165 2 -127.533 14.6706 7.33917 -2.85676 26.0302 
166 2 -127.533 14.6706 11.7666 -2.85676 26.0301 
167 2 -126.272 16.7598 12.4994 -3.37683 6.49209 
168 2 -127.549 16.7587 10.2861 -2.85679 26.0297 
169 1 -110.806 0.0415215 11.0535 -3.54009 3.80622e-06 
170 1 -108.249 0.0436171 11.0507 -3.54008 2.05268e-06 
171 1 -109.528 0.042575 8.83837 -3.54009 2.75028e-06 
172 1 -109.546 2.13232 11.7847 -3.54007 2.14411e-06 
173 1 -113.363 0.0394457 6.62904 -3.54009 8.54773e-06 
174 1 -110.806 0.0415214 6.62607 -3.54009 3.80725e-06 
175 1 -112.085 0.0405153 4.41382 -3.54011 5.86292e-06 
176 1 -112.085 0.0405157 8.84127 -3.54011 5.86403e-06 
177 1 -113.381 2.12953 9.57594 -3.54007 4.42423e-06 
178 1 -110.824 2.13134 9.57258 -3.54008 2.60346e-06 
179 1 -112.103 2.13039 7.36048 -3.54006 3.10411e-06 
180 1 -112.103 2.1304 11.7879 -3.54006 3.10377e-06 
181 1 -113.398 4.2199 12.523 -3.54001 3.14086e-06 
182 1 -110.842 4.2214 12.5194 -3.54006 1.53328e-06 
183 1 -112.12 4.22056 10.3074 -3.54006 1.93835e-06 
184 1 -115.92 0.0374483 2.20476 -3.53998 2.69263e-05 
185 1 -113.363 0.0394453 2.20159 -3.54009 8.54555e-06 
186 1 -114.642 0.0385176 -0.0105559 -3.54014 1.65855e-05 
187 1 -114.642 0.0385179 4.4169 -3.54014 1.65918e-05 
188 1 -115.937 2.12818 5.15229 -3.54002 1.69685e-05 
189 1 -113.381 2.12953 5.14849 -3.54007 4.4225e-06 
190 1 -114.659 2.12881 2.9366 -3.53997 7.63371e-06 
191 1 -114.659 2.12881 7.36405 -3.53997 7.63542e-06 
192 1 -115.953 4.21951 8.09965 -3.53991 2.46009e-05 
193 1 -113.398 4.2199 8.09558 -3.54001 3.14183e-06 
194 1 -114.675 4.21938 5.88382 -3.54003 6.73299e-06 
195 1 -114.675 4.21938 10.3113 -3.54003 6.73257e-06 
196 1 -115.97 6.31036 11.0463 -3.54011 2.60564e-05 
197 1 -113.415 6.31038 11.0425 -3.54005 2.93657e-06 
198 1 -114.692 6.31022 8.83073 -3.54 7.5474e-06 
199 1 -114.709 8.40081 11.7772 -3.54007 7.62142e-06 
200 1 -118.476 0.0367996 -2.21945 -3.53856 0.000919442 
201 1 -115.92 0.0374477 -2.22269 -3.53998 2.69449e-05 
202 1 -117.199 0.0365831 -4.43482 -3.53989 9.03586e-05 
203 1 -117.199 0.0365854 -0.00736727 -3.53989 9.02423e-05 
204 1 -118.493 2.1282 0.728997 -3.54093 0.0008655 
205 1 -115.937 2.12818 0.724837 -3.54002 1.69561e-05 
206 1 -117.214 2.12857 -1.48669 -3.53969 0.000123877 
207 1 -117.214 2.12857 2.94076 -3.53969 0.000123832 
208 1 -118.507 4.22331 3.67618 -3.53998 0.000195623 
209 1 -115.953 4.21951 3.6722 -3.53991 2.46006e-05 
210 1 -117.23 4.21977 1.46043 -3.54027 0.000128123 
211 1 -117.23 4.21977 5.88788 -3.54027 0.00012818 
212 1 -118.524 6.31453 6.62147 -3.54014 6.69149e-05 
213 1 -115.97 6.31035 6.61882 -3.54011 2.6064e-05 
214 1 -117.247 6.31179 4.40683 -3.54005 5.48343e-05 
215 1 -117.247 6.31179 8.83428 -3.54005 5.48045e-05 
216 1 -118.542 8.40495 9.56699 -3.5401 2.73007e-05 
217 1 -115.987 8.40129 9.56509 -3.54007 1.65264e-05 
218 1 -117.264 8.40253 7.35258 -3.5401 2.82091e-05 
219 1 -117.264 8.40253 11.78 -3.5401 2.82101e-05 
220 1 -118.559 10.4947 12.5128 -3.5401 1.39724e-05 
221 1 -116.004 10.4918 12.5112 -3.5401 1.10189e-05 
222 1 -117.281 10.4928 10.2985 -3.54009 1.53948e-05 
223 2 -121.026 0.0620896 -6.64418 -3.53879 0.0135406 
224 1 -118.476 0.0367975 -6.64691 -3.53856 0.000919655 
225 1 -119.757 0.0334188 -8.86086 -3.53942 0.00542504 
226 1 -119.757 0.0334202 -4.4334 -3.53942 0.00542468 
227 2 -121.044 2.14934 -3.69839 -3.53895 0.00191194 
228 1 -118.493 2.1282 -3.69846 -3.54093 0.000865361 
229 1 -119.766 2.13765 -5.90957 -3.53908 0.000633655 
230 1 -119.766 2.13765 -1.48212 -3.53908 0.000633916 
231 2 -121.062 4.2368 -0.752578 -3.53992 0.000613698 
232 1 -118.507 4.22331 -0.751269 -3.53998 0.00019568 
233 1 -119.784 4.22903 -2.96504 -3.54006 0.00014903 
234 1 -119.784 4.22903 1.46241 -3.54006 0.000149247 
235 2 -121.08 6.32432 2.19334 -3.54001 0.000325174 
236 1 -118.524 6.31453 2.19401 -3.54014 6.67879e-05 
237 1 -119.801 6.31918 -0.0197457 -3.54009 4.58132e-05 
238 1 -119.801 6.31918 4.4077 -3.54009 4.63549e-05 
239 2 -121.098 8.41206 5.13937 -3.54004 0.000194884 
240 1 -118.542 8.40495 5.13954 -3.5401 2.72106e-05 
241 1 -119.819 8.40838 2.92583 -3.54012 2.78762e-05 
242 1 -119.819 8.40838 7.35328 -3.54012 2.793e-05 
243 2 -121.115 10.4999 8.08556 -3.54008 0.000128443 
244 1 -118.559 10.4947 8.0853 -3.5401 1.3926e-05 
245 1 -119.836 10.4973 5.87175 -3.54014 1.8431e-05 
246 1 -119.836 10.4973 10.2992 -3.54013 1.84845e-05 
247 2 -121.132 12.5879 11.0319 -3.5401 8.68032e-05 
248 1 -118.576 12.5842 11.0314 -3.5401 8.40746e-06 
249 1 -119.854 12.5861 8.81792 -3.54016 1.32423e-05 
250 1 -119.87 14.6748 11.7643 -3.54018 9.29336e-06 
251 2 -123.582 0.0600597 -11.0716 -3.53924 0.0118291 
252 2 -121.026 0.0620896 -11.0716 -3.53879 0.01354 
253 2 -122.304 0.0610397 13.2794 -3.53986 0.0127655 
254 2 -122.304 0.0610397 -8.85787 -3.53986 0.0127658 
255 2 -123.6 2.14731 -8.12567 -3.53876 4.04154e-07 
256 2 -121.044 2.14934 -8.12585 -3.53895 0.00191226 
257 2 -122.322 2.14829 -10.3395 -3.538 0.000167885 
258 2 -122.322 2.14829 -5.91203 -3.538 0.000167745 
259 2 -123.618 4.2347 -5.17972 -3.54054 5.1394e-07 
260 2 -121.062 4.2368 -5.18004 -3.53992 0.000614261 
261 2 -122.34 4.23575 -7.3936 -3.53991 7.99776e-05 
262 2 -122.34 4.23575 -2.96614 -3.53992 7.99371e-05 
263 2 -123.635 6.32229 -2.23369 -3.54052 4.55606e-07 
264 2 -121.08 6.32432 -2.23412 -3.54001 0.000324635 
265 2 -122.358 6.32334 -4.44762 -3.53991 4.20992e-05 
266 2 -122.358 6.32334 -0.0201892 -3.53991 4.21781e-05 
267 2 -123.652 8.40996 0.712439 -3.54053 5.30541e-07 
268 2 -121.098 8.41206 0.711908 -3.54004 0.000194565 
269 2 -122.375 8.41101 -1.50154 -3.53994 2.51559e-05 
270 2 -122.375 8.41101 2.92589 -3.53995 2.51732e-05 
271 2 -123.669 10.4978 3.65871 -3.54054 7.13387e-07 
272 2 -121.115 10.4999 3.65809 -3.54008 0.000128479 
273 2 -122.392 10.4989 1.44467 -3.53996 1.72346e-05 
274 2 -122.392 10.4989 5.87213 -3.53996 1.72196e-05 
275 2 -123.686 12.5857 6.60516 -3.54054 7.57717e-07 
276 2 -121.132 12.5879 6.60444 -3.5401 8.68489e-05 
277 2 -122.409 12.5868 4.39107 -3.53997 1.17952e-05 
278 2 -122.409 12.5868 8.81853 -3.53997 1.17451e-05 
279 2 -123.702 14.6738 9.55177 -3.54055 8.4758e-07 
280 2 -121.149 14.676 9.551 -3.54012 6.40755e-05 
281 2 -122.426 14.6749 7.33765 -3.53999 8.68856e-06 
282 2 -122.426 14.6749 11.7651 -3.53999 8.67062e-06 
283 2 -123.718 16.762 12.4986 -3.54055 7.93939e-07 
284 2 -121.165 16.7643 12.4978 -3.54013 4.68636e-05 
285 2 -122.442 16.7632 10.2844 -3.54 6.62031e-06 
286 2 -124.86 0.0590097 13.2795 -3.52529 0.0157454 
287 2 -126.156 2.14528 -12.5529 -3.37298 6.48558 
288 2 -123.6 2.14731 -12.5531 -3.53838 3.98558e-07 
289 2 -124.878 2.14626 -10.3393 -3.52518 4.73104e-07 
290 2 -126.173 4.23267 -9.60689 -3.37686 6.48598 
291 2 -123.618 4.2347 -9.60718 -3.54053 4.88495e-07 
292 2 -124.895 4.23372 -11.8208 -3.52696 3.94024e-07 
293 2 -124.895 4.23372 -7.39331 -3.52696 3.95146e-07 
294 2 -126.19 6.32026 -6.66076 -3.37685 6.4867 
295 2 -123.635 6.32229 -6.66116 -3.54053 4.64034e-07 
296 2 -124.913 6.32124 -8.87469 -3.52694 4.93618e-07 
297 2 -124.913 6.32124 -4.44723 -3.52694 4.92696e-07 
298 2 -126.207 8.40793 -3.71452 -3.37685 6.48758 
299 2 -123.652 8.40996 -3.71502 -3.54053 5.55946e-07 
300 2 -124.93 8.40891 -5.9285 -3.52692 6.10567e-07 
301 2 -124.93 8.40891 -1.50104 -3.52692 5.95748e-07 
302 2 -126.224 10.4957 -0.768145 -3.37684 6.48858 
303 2 -123.669 10.4978 -0.768756 -3.54054 7.55728e-07 
304 2 -124.947 10.4967 -2.98218 -3.5269 7.34463e-07 
305 2 -124.947 10.4967 1.44528 -3.5269 7.31641e-07 
306 2 -126.24 12.5836 2.17839 -3.37684 6.48944 
307 2 -123.686 12.5857 2.1777 -3.54054 7.7183e-07 
308 2 -124.963 12.5847 -0.0356764 -3.5269 6.34248e-07 
309 2 -124.963 12.5847 4.39176 -3.5269 6.83646e-07 
310 2 -126.256 14.6716 5.12508 -3.37683 6.49067 
311 2 -123.702 14.6738 5.12433 -3.54055 8.0665e-07 
312 2 -124.979 14.6728 2.91099 -3.52689 7.05458e-07 
313 2 -124.979 14.6728 7.33842 -3.52689 7.49916e-07 
314 2 -126.272 16.7598 8.07198 -3.37683 6.49211 
315 2 -123.718 16.762 8.07116 -3.54055 8.14482e-07 
316 2 -124.995 16.7609 5.85784 -3.52687 7.65269e-07 
317 2 -124.995 16.7609 10.2853 -3.52687 7.37708e-07 
318 2 -126.287 18.8481 11.0191 -3.37682 6.49395 
319 2 -123.734 18.8503 11.0182 -3.54056 1.01568e-06 
320 2 -125.01 18.8491 8.80493 -3.52687 8.94449e-07 
321 2 -125.025 20.9375 11.7522 -3.52686 8.77194e-07 
322 2 -127.451 4.23169 -11.8205 -2.85665 26.0336 
323 2 -126.19 6.32026 -11.0882 -3.37685 6.48674 
324 2 -127.468 6.31921 13.263 -2.85668 26.0321 
325 2 -127.468 6.31921 -8.87429 -2.85668 26.0318 
326 2 -126.207 8.40793 -8.14198 -3.37685 6.48759 
327 2 -127.484 8.40688 -10.3555 -2.8567 26.0314 
328 2 -127.484 8.40688 -5.928 -2.8567 26.0314 
329 2 -126.224 10.4957 -5.19561 -3.37684 6.4885 
330 2 -127.501 10.4947 -7.40903 -2.85673 26.0297 
331 2 -127.501 10.4947 -2.9816 -2.85673 26.0298 
332 2 -126.24 12.5836 -2.24908 -3.37684 6.4894 
333 2 -127.517 12.5826 -4.46247 -2.85675 26.0298 
334 2 -127.517 12.5826 -0.0350123 -2.85675 26.0298 
335 2 -126.256 14.6716 0.697616 -3.37684 6.49063 
336 2 -127.533 14.6706 -1.51573 -2.85676 26.0301 
337 2 -127.533 14.6706 2.91173 -2.85676 26.03 
338 2 -126.272 16.7598 3.64452 -3.37683 6.49211 
339 2 -127.549 16.7587 1.4312 -2.85679 26.0296 
340 2 -127.549 16.7587 5.85866 -2.85679 26.0295 
341 2 -126.287 18.848 6.59164 -3.37683 6.4934 
342 2 -127.564 18.847 4.37832 -2.8568 26.0307 
343 2 -127.564 18.847 8.80578 -2.8568 26.0309 
344 2 -126.302 20.9364 9.53896 -3.37682 6.49513 
345 2 -127.578 20.9353 7.32567 -2.85681 26.0318 
346 2 -127.578 20.9353 11.7531 -2.85682 26.0322 
347 2 -126.316 23.0248 12.4865 -3.37682 6.49718 
348 2 -127.593 23.0236 10.2732 -2.85682 26.0348 
349 1 -105.693 0.0457536 11.048 -3.54008 1.36869e-06 
350 1 -103.136 0.047952 11.0454 -3.54007 1.1246e-06 
351 1 -104.414 0.0468447 8.83296 -3.54007 1.20993e-06 
352 1 -104.434 2.13657 11.779 -3.54007 1.42212e-06 
353 1 -108.249 0.0436171 6.62325 -3.54008 2.05313e-06 
354 1 -105.693 0.0457537 6.62055 -3.54008 1.36887e-06 
355 1 -106.971 0.0446812 4.40816 -3.54008 1.63054e-06 
356 1 -106.971 0.0446814 8.83562 -3.54008 1.63049e-06 
357 1 -108.268 2.13335 9.56951 -3.54008 1.88524e-06 
358 1 -105.712 2.13548 9.56662 -3.54007 1.52453e-06 
359 1 -106.99 2.1344 7.35432 -3.54008 1.66711e-06 
360 1 -106.99 2.1344 11.7818 -3.54008 1.667e-06 
361 1 -108.286 4.22331 12.5161 -3.54007 1.37228e-06 
362 1 -105.731 4.22541 12.513 -3.54007 1.34913e-06 
363 1 -107.009 4.22434 10.3008 -3.54007 1.36316e-06 
364 1 -110.806 0.0415209 2.19862 -3.54009 3.80678e-06 
365 1 -108.249 0.0436167 2.1958 -3.54008 2.053e-06 
366 1 -109.528 0.0425743 -0.0165308 -3.54009 2.74989e-06 
367 1 -109.528 0.0425748 4.41092 -3.54009 2.75023e-06 
368 1 -110.824 2.13134 5.14512 -3.54008 2.60287e-06 
369 1 -108.268 2.13335 5.14205 -3.54008 1.88508e-06 
370 1 -109.546 2.13232 2.92983 -3.54007 2.14397e-06 
371 1 -109.546 2.13232 7.35729 -3.54007 2.14426e-06 
372 1 -110.842 4.2214 8.09193 -3.54006 1.53346e-06 
373 1 -108.286 4.22331 8.08863 -3.54007 1.37235e-06 
374 1 -109.564 4.22232 5.87652 -3.54007 1.4365e-06 
375 1 -109.564 4.22232 10.304 -3.54007 1.43662e-06 
376 1 -110.86 6.31167 11.0389 -3.54006 1.0632e-06 
377 1 -108.305 6.31348 11.0355 -3.54007 9.56264e-07 
378 1 -109.582 6.31253 8.8234 -3.54006 9.33552e-07 
379 1 -109.6 8.40291 11.7704 -3.54007 7.44073e-07 
380 1 -113.363 0.0394448 -2.22586 -3.54009 8.54781e-06 
381 1 -110.806 0.0415206 -2.22883 -3.54009 3.80683e-06 
382 1 -112.085 0.0405147 -4.44109 -3.54011 5.86245e-06 
383 1 -112.085 0.0405149 -0.0136367 -3.54011 5.86181e-06 
384 1 -113.381 2.12953 0.721033 -3.54007 4.42043e-06 
385 1 -110.824 2.13134 0.717672 -3.54008 2.60245e-06 
386 1 -112.103 2.13039 -1.49442 -3.54006 3.10372e-06 
387 1 -112.103 2.13039 2.93303 -3.54006 3.10333e-06 
388 1 -113.398 4.2199 3.66813 -3.54001 3.14195e-06 
389 1 -110.842 4.2214 3.66448 -3.54006 1.53344e-06 
390 1 -112.12 4.22056 1.45252 -3.54006 1.93789e-06 
391 1 -112.12 4.22056 5.87997 -3.54006 1.93815e-06 
392 1 -113.415 6.31038 6.61508 -3.54005 2.9369e-06 
393 1 -110.86 6.31167 6.61141 -3.54006 1.06324e-06 
394 1 -112.137 6.31095 4.39949 -3.54004 1.51554e-06 
395 1 -112.137 6.31095 8.82694 -3.54004 1.51531e-06 
396 1 -113.432 8.40097 9.56181 -3.54005 2.94765e-06 
397 1 -110.877 8.40209 9.55833 -3.54006 8.96243e-07 
398 1 -112.155 8.4014 7.34633 -3.54006 1.45934e-06 
399 1 -112.155 8.4014 11.7738 -3.54006 1.45928e-06 
400 1 -113.449 10.4915 12.5084 -3.54007 2.97555e-06 
401 1 -110.895 10.4926 12.5052 -3.54007 9.40776e-07 
402 1 -112.172 10.4919 10.2931 -3.54006 1.49223e-06 
403 1 -115.92 0.0374478 -6.65015 -3.53998 2.69209e-05 
404 1 -113.363 0.0394452 -6.65331 -3.54009 8.54198e-06 
405 1 -114.642 0.038518 -8.86546 -3.54014 1.65807e-05 
406 1 -114.642 0.0385168 -4.43801 -3.54014 1.65969e-05 
407 1 -115.937 2.12818 -3.70262 -3.54002 1.69859e-05 
408 1 -113.381 2.12953 -3.70642 -3.54007 4.4239e-06 
409 1 -114.659 2.12881 -5.91831 -3.53997 7.63318e-06 
410 1 -114.659 2.12881 -1.49086 -3.53997 7.63751e-06 
411 1 -115.953 4.21951 -0.755256 -3.53991 2.45982e-05 
412 1 -113.398 4.2199 -0.759327 -3.54001 3.14183e-06 
413 1 -114.675 4.21938 -2.97109 -3.54003 6.73702e-06 
414 1 -114.675 4.21938 1.45636 -3.54003 6.73046e-06 
415 1 -115.97 6.31035 2.19137 -3.54011 2.606e-05 
416 1 -113.415 6.31038 2.18763 -3.54005 2.93666e-06 
417 1 -114.692 6.31022 -0.024179 -3.54 7.54585e-06 
418 1 -114.692 6.31022 4.40327 -3.54 7.54994e-06 
419 1 -115.987 8.40129 5.13764 -3.54007 1.65358e-05 
420 1 -113.432 8.40097 5.13436 -3.54005 2.94797e-06 
421 1 -114.709 8.40081 2.92233 -3.54007 7.62353e-06 
422 1 -114.709 8.40081 7.34978 -3.54007 7.623e-06 
423 1 -116.004 10.4918 8.08372 -3.5401 1.10145e-05 
424 1 -113.449 10.4915 8.08093 -3.54007 2.97528e-06 
425 1 -114.727 10.4914 5.8687 -3.54007 5.99027e-06 
426 1 -114.727 10.4914 10.2962 -3.54007 5.98927e-06 
427 1 -116.021 12.582 11.0299 -3.5401 7.41562e-06 
428 1 -113.467 12.582 11.0275 -3.54008 2.68156e-06 
429 1 -114.744 12.5818 8.81508 -3.54009 4.683e-06 
430 1 -114.761 14.6721 11.7616 -3.5401 3.64315e-06 
431 1 -118.476 0.0368005 -11.0744 -3.53856 0.000919357 
432 1 -115.92 0.0374489 -11.0776 -3.53998 2.69231e-05 
433 1 -117.199 0.0365865 13.275 -3.53989 9.02429e-05 
434 1 -117.199 0.0365855 -8.86227 -3.53989 9.02457e-05 
435 1 -118.493 2.1282 -8.12591 -3.54093 0.000865636 
436 1 -115.937 2.12818 -8.13007 -3.54002 1.6956e-05 
437 1 -117.214 2.12857 -10.3416 -3.53969 0.000123841 
438 1 -117.214 2.12857 -5.91414 -3.53969 0.000123848 
439 1 -118.507 4.22331 -5.17872 -3.53998 0.000195806 
440 1 -115.953 4.21951 -5.18271 -3.53991 2.46069e-05 
441 1 -117.23 4.21977 -7.39448 -3.54027 0.000128165 
442 1 -117.23 4.21977 -2.96702 -3.54027 0.000128191 
443 1 -118.524 6.31453 -2.23344 -3.54014 6.68413e-05 
444 1 -115.97 6.31035 -2.23608 -3.54011 2.60546e-05 
445 1 -117.247 6.31179 -4.44808 -3.54005 5.4802e-05 
446 1 -117.247 6.31179 -0.0206266 -3.54005 5.4746e-05 
447 1 -118.542 8.40495 0.712087 -3.5401 2.72682e-05 
448 1 -115.987 8.40129 0.710187 -3.54007 1.65258e-05 
449 1 -117.264 8.40253 -1.50232 -3.5401 2.81815e-05 
450 1 -117.264 8.40253 2.92513 -3.54009 2.82227e-05 
451 1 -118.559 10.4947 3.65785 -3.5401 1.39553e-05 
452 1 -116.004 10.4918 3.65627 -3.5401 1.10204e-05 
453 1 -117.281 10.4928 1.44355 -3.54009 1.54036e-05 
454 1 -117.281 10.4928 5.871 -3.54009 1.53824e-05 
455 1 -118.576 12.5842 6.6039 -3.5401 8.42786e-06 
456 1 -116.021 12.582 6.60247 -3.5401 7.4119e-06 
457 1 -117.298 12.5828 4.38961 -3.54009 9.33439e-06 
458 1 -117.298 12.5828 8.81707 -3.54009 9.34776e-06 
459 1 -118.593 14.6735 9.55023 -3.5401 6.1537e-06 
460 1 -116.038 14.6721 9.54886 -3.54011 5.25509e-06 
461 1 -117.315 14.6726 7.33593 -3.54009 6.19349e-06 
462 1 -117.315 14.6726 11.7634 -3.54009 6.18789e-06 
463 1 -118.609 16.7628 12.4968 -3.54012 5.13559e-06 
464 1 -116.055 16.7622 12.4955 -3.54011 3.9579e-06 
465 1 -117.332 16.7623 10.2825 -3.5401 4.60378e-06 
466 1 -119.757 0.0334218 13.2764 -3.53942 0.00542419 
467 2 -121.044 2.14934 -12.5533 -3.53895 0.00191181 
468 1 -118.493 2.1282 -12.5534 -3.54093 0.000865245 
469 1 -119.766 2.13765 -10.337 -3.53908 0.000633407 
470 2 -121.062 4.2368 -9.60747 -3.53991 0.000615222 
471 1 -118.507 4.22331 -9.60617 -3.53998 0.000195604 
472 1 -119.784 4.22903 -11.8199 -3.54006 0.000149178 
473 1 -119.784 4.22903 -7.39249 -3.54006 0.000149407 
474 2 -121.08 6.32432 -6.66158 -3.54001 0.000325586 
475 1 -118.524 6.31453 -6.66089 -3.54014 6.68767e-05 
476 1 -119.801 6.31918 -8.87466 -3.54009 4.6311e-05 
477 1 -119.801 6.31918 -4.4472 -3.54009 4.57299e-05 
478 2 -121.098 8.41206 -3.71553 -3.54004 0.000194402 
479 1 -118.542 8.40495 -3.71537 -3.5401 2.72042e-05 
480 1 -119.819 8.40838 -5.92907 -3.54012 2.78467e-05 
481 1 -119.819 8.40838 -1.50162 -3.54012 2.79088e-05 
482 2 -121.115 10.4999 -0.769367 -3.54008 0.000128591 
483 1 -118.559 10.4947 -0.769603 -3.5401 1.39672e-05 
484 1 -119.836 10.4973 -2.98316 -3.54013 1.85141e-05 
485 1 -119.836 10.4973 1.44429 -3.54014 1.84441e-05 
486 2 -121.132 12.5879 2.177 -3.5401 8.68037e-05 
487 1 -118.576 12.5842 2.17645 -3.5401 8.40666e-06 
488 1 -119.854 12.5861 -0.0369792 -3.54016 1.32102e-05 
489 1 -119.854 12.5861 4.39047 -3.54016 1.32703e-05 
490 2 -121.149 14.676 5.12354 -3.54012 6.41719e-05 
491 1 -118.593 14.6735 5.12278 -3.5401 6.16848e-06 
492 1 -119.87 14.6748 2.90944 -3.54018 9.30998e-06 
493 1 -119.87 14.6748 7.33689 -3.54018 9.26529e-06 
494 2 -121.165 16.7643 8.07031 -3.54013 4.68556e-05 
495 1 -118.609 16.7628 8.06937 -3.54012 5.13725e-06 
496 1 -119.887 16.7635 5.85612 -3.54019 7.08443e-06 
497 1 -119.887 16.7635 10.2836 -3.54019 7.09957e-06 
498 2 -121.181 18.8526 11.0173 -3.54014 3.27313e-05 
499 1 -118.626 18.852 11.0162 -3.54013 4.66132e-06 
500 1 -119.903 18.8522 8.80305 -3.5402 5.50125e-06 
501 1 -119.918 20.9411 11.7502 -3.54021 5.28172e-06 
502 2 -122.34 4.23575 -11.8211 -3.53992 7.99858e-05 
503 2 -123.635 6.32229 -11.0886 -3.54053 4.72547e-07 
504 2 -121.08 6.32432 -11.089 -3.54001 0.000326161 
505 2 -122.358 6.32327 13.2622 -3.53991 4.05211e-05 
506 2 -122.358 6.32327 -8.87509 -3.53991 4.04947e-05 
507 2 -123.652 8.40996 -8.14248 -3.54053 5.56065e-07 
508 2 -121.098 8.41206 -8.14299 -3.54004 0.000194893 
509 2 -122.375 8.41101 -10.3564 -3.53995 2.50868e-05 
510 2 -122.375 8.41101 -5.92901 -3.53994 2.51636e-05 
511 2 -123.669 10.4978 -5.19619 -3.54054 7.10565e-07 
512 2 -121.115 10.4999 -5.1968 -3.54008 0.000128449 
513 2 -122.392 10.4989 -7.41023 -3.53996 1.72225e-05 
514 2 -122.392 10.4989 -2.98277 -3.53996 1.71981e-05 
515 2 -123.686 12.5857 -2.24977 -3.54054 7.88061e-07 
516 2 -121.132 12.5879 -2.25046 -3.5401 8.67858e-05 
517 2 -122.409 12.5868 -4.46383 -3.53997 1.17472e-05 
518 2 -122.409 12.5868 -0.0363671 -3.53997 1.17196e-05 
519 2 -123.702 14.6738 0.696872 -3.54055 8.48286e-07 
520 2 -121.149 14.676 0.696102 -3.54012 6.41221e-05 
521 2 -122.426 14.6749 -1.51724 -3.53999 8.67773e-06 
522 2 -122.426 14.6749 2.91022 -3.53999 8.655e-06 
523 2 -123.718 16.762 3.6437 -3.54055 8.58234e-07 
524 2 -121.165 16.7643 3.64285 -3.54013 4.6942e-05 
525 2 -122.442 16.7632 1.42955 -3.53999 6.62849e-06 
526 2 -122.442 16.7632 5.85702 -3.54 6.59284e-06 
527 2 -123.734 18.8503 6.59076 -3.54055 9.29198e-07 
528 2 -121.181 18.8526 6.58986 -3.54014 3.27097e-05 
529 2 -122.457 18.8515 4.37659 -3.54001 5.05299e-06 
530 2 -122.457 18.8515 8.80402 -3.54001 5.08135e-06 
531 2 -123.749 20.9387 9.53803 -3.54058 9.13171e-07 
532 2 -121.196 20.941 9.5371 -3.54015 2.16748e-05 
533 2 -122.472 20.9398 7.32384 -3.54003 3.50012e-06 
534 2 -122.472 20.9398 11.7513 -3.54003 3.4836e-06 
535 2 -123.763 23.0271 12.4855 -3.5406 9.41775e-07 
536 2 -121.211 23.0295 12.4846 -3.54017 1.06111e-05 
537 2 -122.487 23.0283 10.2714 -3.54007 2.06393e-06 
538 2 -124.913 6.32124 13.2626 -3.52694 5.04366e-07 
539 2 -126.207 8.40793 -12.5694 -3.37685 6.48734 
540 2 -123.652 8.40996 -12.5699 -3.54054 5.28473e-07 
541 2 -124.93 8.40891 -10.3559 -3.52692 5.90385e-07 
542 2 -126.224 10.4957 -9.62304 -3.37684 6.48858 
543 2 -123.669 10.4978 -9.62365 -3.54054 7.27063e-07 
544 2 -124.947 10.4967 -11.8371 -3.5269 7.25967e-07 
545 2 -124.947 10.4967 -7.40962 -3.5269 6.893e-07 
546 2 -126.24 12.5836 -6.67654 -3.37684 6.4894 
547 2 -123.686 12.5857 -6.6772 -3.54054 7.57717e-07 
548 2 -124.963 12.5847 -8.8906 -3.5269 6.89644e-07 
549 2 -124.963 12.5847 -4.46314 -3.5269 6.58947e-07 
550 2 -126.256 14.6716 -3.72982 -3.37683 6.4907 
551 2 -123.702 14.6738 -3.73059 -3.54055 8.55342e-07 
552 2 -124.979 14.6728 -5.94393 -3.52688 7.49916e-07 
553 2 -124.979 14.6728 -1.51647 -3.52688 7.21689e-07 
554 2 -126.272 16.7598 -0.782942 -3.37683 6.49211 
555 2 -123.718 16.762 -0.783739 -3.54055 8.03191e-07 
556 2 -124.995 16.7609 -2.99706 -3.52687 7.43353e-07 
557 2 -124.995 16.7609 1.4304 -3.52687 7.18694e-07 
558 2 -126.287 18.848 2.16417 -3.37683 6.49336 
559 2 -123.734 18.8503 2.1633 -3.54056 9.48252e-07 
560 2 -125.01 18.8491 -0.0499948 -3.52686 9.15818e-07 
561 2 -125.01 18.8491 4.37747 -3.52687 8.70694e-07 
562 2 -126.302 20.9364 5.1115 -3.37682 6.49538 
563 2 -123.749 20.9386 5.1106 -3.54057 9.72357e-07 
564 2 -125.025 20.9375 2.89731 -3.52686 9.14239e-07 
565 2 -125.025 20.9375 7.32477 -3.52686 8.90911e-07 
566 2 -126.316 23.0248 8.05904 -3.37683 6.49714 
567 2 -123.763 23.0271 8.05811 -3.54059 8.85532e-07 
568 2 -125.04 23.0259 5.84485 -3.52685 8.37944e-07 
569 2 -125.04 23.0259 10.2723 -3.52685 8.0262e-07 
570 2 -126.33 25.1133 11.0068 -3.37681 6.49799 