# LAMMPS data file written by OVITO Basic 3.2.1
34800 atoms
2 atom types
-137.1746219025 137.1746219025 xlo xhi
-34.99980099 34.99980099 ylo yhi
-13.2823577175 13.2823577175 zlo zhi

Atoms  # atomic

1 1 -126.1377713036 -0.0048299725 11.0659306852
2 1 -123.5822904023 0.0600596585 11.0656916027
3 1 -124.8602914848 0.0590096645 8.8520007361
4 1 -124.8778498364 2.1462577963 11.7979479837
5 1 -126.1382925672 0.05802967 6.6383098695
6 1 -127.4162936496 0.0570496756 4.4246190029
7 1 -127.4162936496 0.0570496756 8.8520538655
8 1 -126.1556588743 2.1452778019 9.5843102465
9 1 -127.4334953472 2.1442978075 7.3706725093
10 1 -127.4334953472 2.1442978075 11.7981339367
11 1 -126.1729428767 4.2326659329 12.530363753
12 1 -127.45061474 4.2316859385 10.3167791452
13 1 -121.0262608026 0.062089647 11.0656384733
14 1 -118.4702586378 0.064189635 11.0655587792
15 1 -119.7482597202 0.063139641 8.8518679125
16 1 -119.7665588147 2.1503877728 11.7975760777
17 1 -123.5822904023 0.0600596585 6.6382567401
18 1 -121.0262608026 0.062089647 6.6381770459
19 1 -122.304261885 0.0610396529 4.4244861793
20 1 -122.304261885 0.0610396529 8.8519476067
21 1 -123.6000133635 2.1473077903 9.5841242935
22 1 -121.0443678527 2.1493377788 9.5839649052
23 1 -122.3221768906 2.1482877848 7.370327168
24 1 -122.3221768906 2.1482877848 11.7977620307
25 1 -123.6176540199 4.2346959214 12.5300715411
26 1 -121.0623651631 4.2367959094 12.5297793292
27 1 -122.3400095915 4.2357459154 10.3161947215
28 1 -126.1382925672 0.05802967 2.2108484421
29 1 -123.5822904023 0.0600596585 2.2107953126
30 1 -124.8602914848 0.0590096645 -0.002895554
31 1 -124.8602914848 0.0590096645 4.4245393087
32 1 -126.1556588743 2.1452778019 5.1568753838
33 1 -123.6000133635 2.1473077903 5.1566894308
34 1 -124.8778498364 2.1462577963 2.9430516936
35 1 -124.8778498364 2.1462577963 7.370513121
36 1 -126.1729428767 4.2326659329 8.1029288903
37 1 -123.6176540199 4.2346959214 8.1026366784
38 1 -124.8952984483 4.233715927 5.8890520706
39 1 -124.8952984483 4.233715927 10.3164869333
40 1 -126.1900897044 6.3202640628 11.0490620909
41 1 -123.6351300667 6.3222940512 11.0486636201
42 1 -124.9126098856 6.3212440572 8.8351321418
43 1 -124.9297018434 8.4089121867 11.7813184718
44 1 -126.1382102624 0.05802967 -2.2165864206
45 1 -127.4162113448 0.0570496756 -4.430303852
46 1 -127.4162113448 0.0570496756 -0.0028424246
47 1 -126.1555765695 2.1452778019 0.7294139564
48 1 -127.4334130424 2.1442978075 -1.4842237808
49 1 -127.4334130424 2.1442978075 2.9432110819
50 1 -126.1728605719 4.2326659329 3.6754674629
51 1 -127.4505050003 4.2316859385 1.4618828551
52 1 -127.4505050003 4.2316859385 5.8893442825
53 1 -126.1899799647 6.3202640628 6.6216006635
54 1 -127.4674872185 6.3192140687 4.4080691851
55 1 -127.4674872185 6.3192140687 8.8355306125
56 1 -126.206934748 8.4079321922 9.5678401229
57 1 -127.4842499573 8.4068821982 7.354361774
58 1 -127.4842499573 8.4068821982 11.7817966367
59 1 -126.223615182 10.4957403209 12.514212406
60 1 -127.5007657818 10.4946903269 10.3007606218
61 1 -115.9142839078 0.0662896231 11.0655056497
62 1 -113.3583091779 0.0684596107 11.0654259556
63 1 -114.6362828254 0.0674096167 8.851735089
64 1 -114.6554049677 2.1546577485 11.797177607
65 1 -118.4702586378 0.064189635 6.6381239165
66 1 -115.9142839078 0.0662896231 6.6380442223
67 1 -117.1922849903 0.065239629 4.4243533557
68 1 -117.1922849903 0.065239629 8.8518147831
69 1 -118.4887772117 2.1514377669 9.5837523875
70 1 -115.9331865707 2.1536077545 9.5835664345
71 1 -117.2109681738 2.1524877609 7.3699286973
72 1 -117.2109681738 2.1524877609 11.7973901247
73 1 -118.507158611 4.2388958975 12.5294605526
74 1 -115.9519794939 4.2410658852 12.5291417761
75 1 -117.2295690525 4.2399458915 10.315583733
76 1 -121.0262608026 0.062089647 2.2107156185
77 1 -118.4702586378 0.064189635 2.2106624891
78 1 -119.7482597202 0.063139641 -0.0030283776
79 1 -119.7482597202 0.063139641 4.4244330498
80 1 -121.0443678527 2.1493377788 5.1565034778
81 1 -118.4887772117 2.1514377669 5.1563175248
82 1 -119.7665588147 2.1503877728 2.9426797876
83 1 -119.7665588147 2.1503877728 7.370141215
84 1 -121.0623651631 4.2367959094 8.1023179018
85 1 -118.507158611 4.2388958975 8.1019991252
86 1 -119.7847756045 4.2378459035 5.8884410822
87 1 -119.7847756045 4.2378459035 10.3159025096
88 1 -121.0802252988 6.3243240397 11.0482385847
89 1 -118.5253754008 6.3264940274 11.0478135493
90 1 -119.8028003498 6.3253740337 8.8343086356
91 1 -119.8205781808 8.4131121628 11.7802824479
92 1 -123.5822904023 0.0600596585 -2.2166661148
93 1 -121.0262608026 0.062089647 -2.2167192442
94 1 -122.304261885 0.0610396529 -4.4304101108
95 1 -122.304261885 0.0610396529 -0.0029752481
96 1 -123.6000133635 2.1473077903 0.7292280034
97 1 -121.0443678527 2.1493377788 0.7290420504
98 1 -122.3221768906 2.1482877848 -1.4845956868
99 1 -122.3221768906 2.1482877848 2.9428657406
100 1 -123.6176540199 4.2346959214 3.675175251
101 1 -121.0623651631 4.2367959094 3.6748830391
102 1 -122.3400095915 4.2357459154 1.4612984314
103 1 -122.3400095915 4.2357459154 5.8887598588
104 1 -123.6351300667 6.3222940512 6.6212021927
105 1 -121.0802252988 6.3243240397 6.6207771573
106 1 -122.3576776828 6.3232740457 4.4072722437
107 1 -122.3576776828 6.3232740457 8.8347336711
108 1 -123.6523866341 8.4099621807 9.5673353933
109 1 -121.0978385203 8.4120621687 9.566804099
110 1 -122.3750988598 8.4110121747 7.3533523148
111 1 -122.3750988598 8.4110121747 11.7808137423
112 1 -123.6693962873 10.4977703093 12.5136014175
113 1 -121.1151499576 10.499940297 12.5129904291
114 1 -122.3922731224 10.498890303 10.2995917743
115 1 -126.1382925672 0.05802967 -6.644047848
116 1 -123.5822904023 0.0600596585 -6.6441009774
117 1 -124.8602914848 0.0590096645 -8.8578184088
118 1 -124.8602914848 0.0590096645 -4.4303569814
119 1 -126.1556588743 2.1452778019 -3.698047471
120 1 -123.6000133635 2.1473077903 -3.6982068593
121 1 -124.8778498364 2.1462577963 -5.9118711612
122 1 -124.8778498364 2.1462577963 -1.4844097338
123 1 -126.1729428767 4.2326659329 -0.7519939645
124 1 -123.6176540199 4.2346959214 -0.7522861764
125 1 -124.8952984483 4.233715927 -2.9658442195
126 1 -124.8952984483 4.233715927 1.4615906432
127 1 -126.1900897044 6.3202640628 2.1941392361
128 1 -123.6351300667 6.3222940512 2.1937407653
129 1 -124.9126098856 6.3212440572 -0.019790713
130 1 -124.9126098856 6.3212440572 4.4076707144
131 1 -126.2070170528 8.4079321922 5.1403786955
132 1 -123.6523866341 8.4099621807 5.1398739659
133 1 -124.9297018434 8.4089121867 2.9264221818
134 1 -124.9297018434 8.4089121867 7.3538570444
135 1 -126.2236974868 10.4957403209 8.0867509786
136 1 -123.6693962873 10.4977703093 8.0861665548
137 1 -124.946546887 10.4967203153 5.8727413354
138 1 -124.946546887 10.4967203153 10.3001761981
139 1 -126.2400761366 12.5836184491 11.0332826499
140 1 -123.6860767213 12.5857184372 11.0325919673
141 1 -124.9630627115 12.5846684432 8.8192198773
142 1 -124.9792493169 14.6727565702 11.7658843722
143 1 -126.1382925672 0.05802967 -11.0715039625
144 1 -127.4162936496 0.0570496756 13.2795152929
145 1 -127.4162936496 0.0570496756 -8.8577652794
146 1 -126.1556588743 2.1452778019 -8.1255088984
147 1 -127.4334953472 2.1442978075 -10.3391466356
148 1 -127.4334953472 2.1442978075 -5.9116852082
149 1 -126.1729428767 4.2326659329 -5.1794288272
150 1 -127.45061474 4.2316859385 -7.3930399997
151 1 -127.45061474 4.2316859385 -2.9655785723
152 1 -126.1900897044 6.3202640628 -2.2332956266
153 1 -127.4675695233 6.3192140687 -4.4468536697
154 1 -127.4675695233 6.3192140687 -0.0193922423
155 1 -126.2070170528 8.4079321922 0.7129172681
156 1 -127.484359697 8.4068821982 -1.5005610808
157 1 -127.484359697 8.4068821982 2.9269003466
158 1 -126.2236974868 10.4957403209 3.6592895512
159 1 -127.5008755215 10.4946903269 1.4458643317
160 1 -127.5008755215 10.4946903269 5.8733257591
161 1 -126.2400761366 12.5836184491 6.6058212225
162 1 -127.5171169967 12.5825684551 4.3924225677
163 1 -127.5171169967 12.5825684551 8.8198839952
164 1 -126.2561255674 14.6716365766 9.5525388468
165 1 -127.5330292528 14.6705865826 7.3391667568
166 1 -127.5330292528 14.6705865826 11.7666281842
167 1 -126.2717909092 16.7597947033 12.4994158595
168 1 -127.54855742 16.7587447092 10.2860968989
169 1 -110.802334448 0.070699598 11.0653462614
170 1 -108.246414588 0.0730095849 11.0652665673
171 1 -109.5243333656 0.0718195916 8.8516022654
172 1 -109.5443608604 2.1591377231 11.7967525715
173 1 -113.3583091779 0.0684596107 6.6379910929
174 1 -110.802334448 0.070699598 6.6379113988
175 1 -112.0803080955 0.0695796044 4.4242205321
176 1 -112.0803080955 0.0695796044 8.8516819595
177 1 -113.3776233647 2.1557777422 9.5833539168
178 1 -110.8221150285 2.1580177294 9.583141399
179 1 -112.0998691966 2.1568977358 7.3695302265
180 1 -112.0998691966 2.1568977358 11.7969650892
181 1 -113.3968552467 4.2432358728 12.5287964348
182 1 -110.8417584344 4.2454758601 12.5284510935
183 1 -112.1192931231 4.2443558665 10.3148930504
184 1 -115.9142839078 0.0662896231 2.2106093596
185 1 -113.3583091779 0.0684596107 2.2105296655
186 1 -114.6362828254 0.0674096167 -0.0031612011
187 1 -114.6362828254 0.0674096167 4.4243002263
188 1 -115.9331865707 2.1536077545 5.1561050071
189 1 -113.3776233647 2.1557777422 5.1558924893
190 1 -114.6554049677 2.1546577485 2.9422813169
191 1 -114.6554049677 2.1546577485 7.3697427443
192 1 -115.9519794939 4.2410658852 8.1016803487
193 1 -113.3968552467 4.2432358728 8.1013350074
194 1 -114.6744173703 4.2421158792 5.887803529
195 1 -114.6744173703 4.2421158792 10.3152383917
196 1 -115.9705803727 6.328664015 11.0473619491
197 1 -113.4158402144 6.3309040023 11.0468837842
198 1 -114.6932102935 6.3297840086 8.8334054353
199 1 -114.7117563024 8.4175221377 11.7791401652
200 1 -118.4702586378 0.064189635 -2.2167989383
201 1 -115.9142839078 0.0662896231 -2.2168520678
202 1 -117.1922849903 0.065239629 -4.4305429344
203 1 -117.1922849903 0.065239629 -0.003081507
204 1 -118.4887772117 2.1514377669 0.7288560974
205 1 -115.9331865707 2.1536077545 0.7286701444
206 1 -117.2109681738 2.1524877609 -1.4849675928
207 1 -117.2109681738 2.1524877609 2.9424938346
208 1 -118.507158611 4.2388958975 3.6745642625
209 1 -115.9519794939 4.2410658852 3.674245486
210 1 -117.2295690525 4.2399458915 1.4606608782
211 1 -117.2295690525 4.2399458915 5.8881223056
212 1 -118.5253754008 6.3264940274 6.6203521218
213 1 -115.9705803727 6.328664015 6.6199005217
214 1 -117.2479778868 6.3275440214 4.4063956081
215 1 -117.2479778868 6.3275440214 8.8338570355
216 1 -118.5433452763 8.4142321564 9.5662728047
217 1 -115.9889343371 8.4164021441 9.5657149457
218 1 -117.2661123718 8.41535215 7.3522631615
219 1 -117.2661123718 8.41535215 11.7797245889
220 1 -118.5610133676 10.5021102847 12.5123528759
221 1 -116.0069316475 10.5043502719 12.511688758
222 1 -117.2839725075 10.5032302783 10.2982901033
223 1 -121.0262608026 0.062089647 -6.6441806716
224 1 -118.4702586378 0.064189635 -6.644233801
225 1 -119.7482597202 0.063139641 -8.8579246677
226 1 -119.7482597202 0.063139641 -4.430489805
227 1 -121.0443678527 2.1493377788 -3.6983928123
228 1 -118.4887772117 2.1514377669 -3.6985787653
229 1 -119.7665588147 2.1503877728 -5.9122165025
230 1 -119.7665588147 2.1503877728 -1.4847550751
231 1 -121.0623651631 4.2367959094 -0.7525783883
232 1 -118.507158611 4.2388958975 -0.7528971649
233 1 -119.7847756045 4.2378459035 -2.9664552079
234 1 -119.7847756045 4.2378459035 1.4610062195
235 1 -121.0802252988 6.3243240397 2.1933422946
236 1 -118.5253754008 6.3264940274 2.1929172592
237 1 -119.8028003498 6.3254440333 -0.0206142192
238 1 -119.8028003498 6.3254440333 4.4068472082
239 1 -121.0978385203 8.4120621687 5.1393692363
240 1 -118.5433452763 8.4142321564 5.138837942
241 1 -119.8205781808 8.4131121628 2.9253861578
242 1 -119.8205781808 8.4131121628 7.3528210205
243 1 -121.1151499576 10.499940297 8.0855555664
244 1 -118.5610133676 10.5021102847 8.0849180132
245 1 -119.8380816626 10.500990291 5.8714927937
246 1 -119.8380816626 10.500990291 10.2989542211
247 1 -121.1321596107 12.5878884249 11.0319012847
248 1 -118.5783248049 12.5901284121 11.0311574727
249 1 -119.8552284903 12.5890084185 8.8178119473
250 1 -119.8719912291 14.6771665452 11.764317054
251 1 -123.5822904023 0.0600596585 -11.0715624049
252 1 -121.0262608026 0.062089647 -11.0716261602
253 1 -122.304261885 0.0610396529 13.2793824694
254 1 -122.304261885 0.0610396529 -8.8578715382
255 1 -123.6000133635 2.1473077903 -8.1256682867
256 1 -121.0443678527 2.1493377788 -8.1258542397
257 1 -122.3221768906 2.1482877848 -10.3394919769
258 1 -122.3221768906 2.1482877848 -5.9120305495
259 1 -123.6176540199 4.2346959214 -5.1797210391
260 1 -121.0623651631 4.2367959094 -5.1800398157
261 1 -122.3400095915 4.2357459154 -7.3935978587
262 1 -122.3400095915 4.2357459154 -2.9661364313
263 1 -123.6351300667 6.3222940512 -2.2336940974
264 1 -121.0802252988 6.3243240397 -2.2341191328
265 1 -122.3576776828 6.3233440453 -4.4476240464
266 1 -122.3576776828 6.3233440453 -0.0201891837
267 1 -123.6523866341 8.4099621807 0.7124391033
268 1 -121.0978385203 8.4120621687 0.7119078089
269 1 -122.3750988598 8.4110121747 -1.5015439752
270 1 -122.3750988598 8.4110121747 2.9258908874
271 1 -123.6693962873 10.4977703093 3.6587051274
272 1 -121.1151499576 10.499940297 3.658094139
273 1 -122.3922731224 10.498890303 1.4446689195
274 1 -122.3922731224 10.498890303 5.8721303469
275 1 -123.6860767213 12.5857184372 6.6051571046
276 1 -121.1321596107 12.5878884249 6.6044398573
277 1 -122.4090907311 12.5868384308 4.3910677673
278 1 -122.4090907311 12.5868384308 8.8185291947
279 1 -123.7024005013 14.6738065643 9.5517684701
280 1 -121.14875774 14.6760465515 9.5509980934
281 1 -122.4255791206 14.6749265579 7.337652568
282 1 -122.4255791206 14.6749265579 11.7651139954
283 1 -123.7183401924 16.7620346905 12.498618918
284 1 -121.1649717803 16.7642746778 12.4977688471
285 1 -122.4416285514 16.7631546842 10.2844498865
286 1 -124.8602914848 0.0590096645 13.2794621635
287 1 -126.1556588743 2.1452778019 -12.552949074
288 1 -123.6000133635 2.1473077903 -12.5531244012
289 1 -124.8778498364 2.1462577963 -10.3393060239
290 1 -126.1729428767 4.2326659329 -9.6068902546
291 1 -123.6176540199 4.2346959214 -9.6071824665
292 1 -124.8952984483 4.233715927 -11.8207591049
293 1 -124.8952984483 4.233715927 -7.3933056469
294 1 -126.1900897044 6.3202640628 -6.660757054
295 1 -123.6351300667 6.3222940512 -6.6611555248
296 1 -124.9126098856 6.3212440572 -8.8746870031
297 1 -124.9126098856 6.3212440572 -4.4472255757
298 1 -126.2070170528 8.4079321922 -3.7145175946
299 1 -123.6523866341 8.4099621807 -3.7150223242
300 1 -124.9297018434 8.4089121867 -5.9285006731
301 1 -124.9297018434 8.4089121867 -1.5010392457
302 1 -126.2236974868 10.4957403209 -0.7681453115
303 1 -123.6693962873 10.4977703093 -0.7687563
304 1 -124.946546887 10.4967203153 -2.9821815194
305 1 -124.946546887 10.4967203153 1.445279908
306 1 -126.2400761366 12.5836184491 2.1783863598
307 1 -123.6860767213 12.5857184372 2.1776956772
308 1 -124.9630627115 12.5846684432 -0.0356764128
309 1 -124.9630627115 12.5846684432 4.3917584499
310 1 -126.2561255674 14.6716365766 5.1250774194
311 1 -123.7024005013 14.6738065643 5.1243336074
312 1 -124.9792493169 14.6727565702 2.9109880821
313 1 -124.9792493169 14.6727565702 7.3384229448
314 1 -126.2717909092 16.7597947033 8.0719809968
315 1 -123.7183401924 16.7620346905 8.0711574906
316 1 -124.9950518333 16.7609146969 5.85783853
317 1 -124.9950518333 16.7609146969 10.2852999574
318 1 -126.2870721621 18.8480928291 11.0190705272
319 1 -123.7338409246 18.8502628168 11.0181938915
320 1 -125.0104428259 18.8491428232 8.8049280604
321 1 -125.0253948597 20.9375109486 11.7522301084
322 1 -127.45061474 4.2316859385 -11.8204775189
323 1 -126.1900897044 6.3202640628 -11.088210512
324 1 -127.4675695233 6.3192140687 13.2629654752
325 1 -127.4675695233 6.3192140687 -8.8742885324
326 1 -126.2070170528 8.4079321922 -8.141979022
327 1 -127.484359697 8.4068821982 -10.3554573709
328 1 -127.484359697 8.4068821982 -5.9279959435
329 1 -126.2236974868 10.4957403209 -5.1956067389
330 1 -127.5008755215 10.4946903269 -7.4090319584
331 1 -127.5008755215 10.4946903269 -2.9815970957
332 1 -126.2400761366 12.5836184491 -2.2490750676
333 1 -127.5171169967 12.5825684551 -4.4624737223
334 1 -127.5171169967 12.5825684551 -0.0350122949
335 1 -126.2561255674 14.6716365766 0.697615992
336 1 -127.5330292528 14.6705865826 -1.5157295333
337 1 -127.5330292528 14.6705865826 2.9117318941
338 1 -126.2717909092 16.7597947033 3.6445195694
339 1 -127.54855742 16.7587447092 1.4312006088
340 1 -127.54855742 16.7587447092 5.8586620362
341 1 -126.2870721621 18.8480228295 6.5916356645
342 1 -127.5637289332 18.8469728355 4.3783167039
343 1 -127.5637289332 18.8469728355 8.8057781313
344 1 -126.3019144562 20.936390955 9.5389642773
345 1 -127.5784614876 20.9352709614 7.3256718814
346 1 -127.5784614876 20.9352709614 11.7531067441
347 1 -126.3163177915 23.0248290801 12.4865054078
348 1 -127.5927825181 23.0236390868 10.2732395766
349 1 -105.6903026834 0.0753195717 11.0651868731
350 1 -103.1344651282 0.0776995582 11.065107179
351 1 -104.4123839058 0.076509565 8.8514428771
352 1 -104.4335087976 2.1638276964 11.7962744066
353 1 -108.246414588 0.0730095849 6.6378317046
354 1 -105.6903026834 0.0753195717 6.6377520105
355 1 -106.9684958103 0.0741295785 4.4240611438
356 1 -106.9684958103 0.0741295785 8.8515225712
357 1 -108.266716432 2.1603277163 9.5829023166
358 1 -105.711153226 2.1626377032 9.5826632342
359 1 -106.9887976544 2.1614477099 7.3690520617
360 1 -106.9887976544 2.1614477099 11.7965134891
361 1 -108.2867439268 4.247785847 12.5280526227
362 1 -105.7317294193 4.2501658334 12.5276807167
363 1 -107.0090994984 4.2489758402 10.3141492384
364 1 -110.802334448 0.070699598 2.2104499713
365 1 -108.246414588 0.0730095849 2.2103702772
366 1 -109.5243333656 0.0718195916 -0.0033205894
367 1 -109.5243333656 0.0718195916 4.424140838
368 1 -110.8221150285 2.1580177294 5.1556799716
369 1 -108.266716432 2.1603277163 5.1554674539
370 1 -109.5443608604 2.1591377231 2.9418562814
371 1 -109.5443608604 2.1591377231 7.3692911441
372 1 -110.8417584344 4.2454758601 8.100989666
373 1 -108.2867439268 4.247785847 8.10061776
374 1 -109.564114006 4.2466658533 5.8870862817
375 1 -109.564114006 4.2466658533 10.3145211444
376 1 -110.8611823608 6.3331439895 11.0464056193
377 1 -108.3064970724 6.335523976 11.045874325
378 1 -109.5838671515 6.3343339828 8.8324225408
379 1 -109.6033459478 8.4221421114 11.7779181883
380 1 -113.3583091779 0.0684596107 -2.2169317619
381 1 -110.802334448 0.070699598 -2.2170114561
382 1 -112.0803080955 0.0695796044 -4.430675758
383 1 -112.0803080955 0.0695796044 -0.0032408953
384 1 -113.3776233647 2.1557777422 0.7284576267
385 1 -110.8221150285 2.1580177294 0.7282451089
386 1 -112.0998691966 2.1568977358 -1.4853926283
387 1 -112.0998691966 2.1568977358 2.9420687991
388 1 -113.3968552467 4.2432358728 3.6739001447
389 1 -110.8417584344 4.2454758601 3.6735282386
390 1 -112.1192931231 4.2443558665 1.4599967603
391 1 -112.1192931231 4.2443558665 5.887431623
392 1 -113.4158402144 6.3309040023 6.6194489215
393 1 -110.8611823608 6.3331439895 6.6189441919
394 1 -112.1384975701 6.3320239959 4.405465843
395 1 -112.1384975701 6.3320239959 8.8329272704
396 1 -113.4345782677 8.4187121309 9.565130522
397 1 -110.8803045031 8.4210221178 9.5645195335
398 1 -112.157427668 8.4198321246 7.351094314
399 1 -112.157427668 8.4198321246 11.7785557414
400 1 -113.4529596671 10.5066602588 12.5109980754
401 1 -110.8990974263 10.5089702457 12.5102808281
402 1 -112.1760011118 10.5077802524 10.2969087381
403 1 -115.9142839078 0.0662896231 -6.6443134952
404 1 -113.3583091779 0.0684596107 -6.6443666246
405 1 -114.6362828254 0.0674096167 -8.8580574912
406 1 -114.6362828254 0.0674096167 -4.4306226285
407 1 -115.9331865707 2.1536077545 -3.698791283
408 1 -113.3776233647 2.1557777422 -3.6990038007
409 1 -114.6554049677 2.1546577485 -5.9126149732
410 1 -114.6554049677 2.1546577485 -1.4851801105
411 1 -115.9519794939 4.2410658852 -0.7532159414
412 1 -113.3968552467 4.2432358728 -0.7535612827
413 1 -114.6744173703 4.2421158792 -2.9671193258
414 1 -114.6744173703 4.2421158792 1.4603421016
415 1 -115.9705803727 6.328664015 2.192465659
416 1 -113.4158402144 6.3309040023 2.1919874941
417 1 -114.6932102935 6.3297840086 -0.0215174195
418 1 -114.6932102935 6.3297840086 4.4059440079
419 1 -115.9889343371 8.4164021441 5.1382535183
420 1 -113.4345782677 8.4187121309 5.1376690946
421 1 -114.7117563024 8.4175221377 2.9242438751
422 1 -114.7117563024 8.4175221377 7.3517053025
423 1 -116.0069316475 10.5043502719 8.0842273306
424 1 -113.4529596671 10.5066602588 8.083536648
425 1 -114.7299456573 10.5054702656 5.870164558
426 1 -114.7299456573 10.5054702656 10.2976259854
427 1 -116.0245997388 12.592438399 11.0304136606
428 1 -113.4709569774 12.5947483859 11.0296167192
429 1 -114.7477509232 12.5935583926 8.8162977586
430 1 -114.7651446652 14.6817865189 11.7626434769
431 1 -118.4702586378 0.064189635 -11.0716899155
432 1 -115.9142839078 0.0662896231 -11.0717589837
433 1 -117.1922849903 0.065239629 13.2792496458
434 1 -117.1922849903 0.065239629 -8.8580043618
435 1 -118.4887772117 2.1514377669 -8.1260401927
436 1 -115.9331865707 2.1536077545 -8.1262527104
437 1 -117.2109681738 2.1524877609 -10.3398638829
438 1 -117.2109681738 2.1524877609 -5.9124290202
439 1 -118.507158611 4.2388958975 -5.1803320275
440 1 -115.9519794939 4.2410658852 -5.1806773688
441 1 -117.2295690525 4.2399458915 -7.3942354119
442 1 -117.2295690525 4.2399458915 -2.9667739845
443 1 -118.5253754008 6.3264940274 -2.2345441682
444 1 -115.9705803727 6.328664015 -2.2349957684
445 1 -117.2479778868 6.3275440214 -4.448500682
446 1 -117.2479778868 6.3275440214 -0.0210392546
447 1 -118.5433452763 8.4142321564 0.7113765146
448 1 -115.9889343371 8.4164021441 0.7108186556
449 1 -117.2661123718 8.41535215 -1.5026331286
450 1 -117.2661123718 8.41535215 2.9248282988
451 1 -118.5610133676 10.5021102847 3.6574565858
452 1 -116.0069316475 10.5043502719 3.6567924679
453 1 -117.2839725075 10.5032302783 1.4433938132
454 1 -117.2839725075 10.5032302783 5.8708552406
455 1 -118.5783248049 12.5901284121 6.60372261
456 1 -116.0245997388 12.592438399 6.6029522332
457 1 -117.3014485544 12.5912484058 4.3896067079
458 1 -117.3014485544 12.5912484058 8.8170681353
459 1 -118.5952247183 14.6782865388 9.5502011519
460 1 -116.0418014364 14.6805965257 9.549351081
461 1 -117.3185130773 14.6794065324 7.3360586851
462 1 -117.3185130773 14.6794065324 11.7634935478
463 1 -118.6117131079 16.7665846647 12.4968922115
464 1 -116.0585641752 16.7688946515 12.4959890112
465 1 -117.3351112066 16.7677046583 10.28272318
466 1 -119.7482597202 0.063139641 13.2793293399
467 1 -121.0443678527 2.1493377788 -12.5533076977
468 1 -118.4887772117 2.1514377669 -12.5534989636
469 1 -119.7665588147 2.1503877728 -10.3396779299
470 1 -121.0623651631 4.2367959094 -9.6074746784
471 1 -118.507158611 4.2388958975 -9.607793455
472 1 -119.7847756045 4.2378459035 -11.8213621239
473 1 -119.7847756045 4.2378459035 -7.3939166353
474 1 -121.0802252988 6.3243240397 -6.6615805602
475 1 -118.5253754008 6.3264940274 -6.6620055957
476 1 -119.8028003498 6.3254440333 -8.8755105093
477 1 -119.8028003498 6.3254440333 -4.4480490819
478 1 -121.0978385203 8.4120621687 -3.7155270537
479 1 -118.5433452763 8.4142321564 -3.7160849128
480 1 -119.8205781808 8.4131121628 -5.929536697
481 1 -119.8205781808 8.4131121628 -1.5020752696
482 1 -121.1151499576 10.499940297 -0.7693672884
483 1 -118.5610133676 10.5021102847 -0.7700048416
484 1 -119.8380816626 10.500990291 -2.9834034964
485 1 -119.8380816626 10.500990291 1.444057931
486 1 -121.1321596107 12.5878884249 2.1770049946
487 1 -118.5783248049 12.5901284121 2.1762611826
488 1 -119.8552284903 12.5890084185 -0.0370843427
489 1 -119.8552284903 12.5890084185 4.3903505199
490 1 -121.14875774 14.6760465515 5.1235366659
491 1 -118.5952247183 14.6782865388 5.1227397245
492 1 -119.8719912291 14.6771665452 2.9094207639
493 1 -119.8719912291 14.6771665452 7.3368821913
494 1 -121.1649717803 16.7642746778 8.0703074197
495 1 -118.6117131079 16.7665846647 8.0694307841
496 1 -119.8883150091 16.7653946714 5.8561649529
497 1 -119.8883150091 16.7653946714 10.2835998156
498 1 -121.1807194269 18.8525728037 11.0173172559
499 1 -118.6277076688 18.8549527901 11.0163874909
500 1 -119.9041998304 18.8537627969 8.8031216597
501 1 -119.9195908229 20.942200922 11.7503440136
502 1 -122.3400095915 4.2357459154 -11.8210566297
503 1 -123.6351300667 6.3222940512 -11.0886063263
504 1 -121.0802252988 6.3243240397 -11.0890207358
505 1 -122.3576776828 6.3232740457 13.2621685338
506 1 -122.3576776828 6.3232740457 -8.8750854738
507 1 -123.6523866341 8.4099621807 -8.1424837516
508 1 -121.0978385203 8.4120621687 -8.1429884812
509 1 -122.3750988598 8.4110121747 -10.3564402653
510 1 -122.3750988598 8.4110121747 -5.9290054027
511 1 -123.6693962873 10.4977703093 -5.1961911627
512 1 -121.1151499576 10.499940297 -5.1968021511
513 1 -122.3922731224 10.498890303 -7.4102273706
514 1 -122.3922731224 10.498890303 -2.9827659432
515 1 -123.6860767213 12.5857184372 -2.2497657502
516 1 -121.1321596107 12.5878884249 -2.2504564328
517 1 -122.4090907311 12.5868384308 -4.4638285228
518 1 -122.4090907311 12.5868384308 -0.0363670954
519 1 -123.7024005013 14.6738065643 0.69687218
520 1 -121.14875774 14.6760465515 0.6961018033
521 1 -122.4255791206 14.6749265579 -1.5172437221
522 1 -122.4255791206 14.6749265579 2.9102177053
523 1 -123.7183401924 16.7620346905 3.6436960632
524 1 -121.1649717803 16.7642746778 3.6428459923
525 1 -122.4416285514 16.7631546842 1.4295535964
526 1 -122.4416285514 16.7631546842 5.8570150238
527 1 -123.7338409246 18.8502628168 6.5907590289
528 1 -121.1807194269 18.8525728037 6.5898558285
529 1 -122.4572664583 18.85145281 4.3765899973
530 1 -122.4572664583 18.85145281 8.80402486
531 1 -123.7489026981 20.9387009419 9.5380345122
532 1 -121.1960006797 20.9410109287 9.5371047472
533 1 -122.4724379715 20.9398209355 7.323838916
534 1 -122.4724379715 20.9398209355 11.7513003434
535 1 -123.7634980779 23.0271390669 12.485549078
536 1 -121.210788104 23.0295190534 12.4845927483
537 1 -122.487115656 23.0283290602 10.2713534818
538 1 -124.9126098856 6.3212440572 13.2625670045
539 1 -126.2070170528 8.4079321922 -12.569427167
540 1 -123.6523866341 8.4099621807 -12.5699265837
541 1 -124.9297018434 8.4089121867 -10.3559355357
542 1 -126.2236974868 10.4957403209 -9.6230416016
543 1 -123.6693962873 10.4977703093 -9.6236525901
544 1 -124.946546887 10.4967203153 -11.8370751531
545 1 -124.946546887 10.4967203153 -7.4096163821
546 1 -126.2400761366 12.5836184491 -6.676536495
547 1 -123.6860767213 12.5857184372 -6.6772006129
548 1 -124.9630627115 12.5846684432 -8.8905992676
549 1 -124.9630627115 12.5846684432 -4.4631378402
550 1 -126.2561255674 14.6716365766 -3.7298188707
551 1 -123.7024005013 14.6738065643 -3.7305892474
552 1 -124.9792493169 14.6727565702 -5.9439347727
553 1 -124.9792493169 14.6727565702 -1.5164733453
554 1 -126.2717909092 16.7597947033 -0.782941858
555 1 -123.7183401924 16.7620346905 -0.7837387995
556 1 -124.9950518333 16.7609146969 -2.9970577601
557 1 -124.9950518333 16.7609146969 1.4304036673
558 1 -126.2870721621 18.8480228295 2.1641742371
559 1 -123.7338409246 18.8502628168 2.1632976014
560 1 -125.0104428259 18.8491428232 -0.0499947944
561 1 -125.0104428259 18.8491428232 4.377466633
562 1 -126.3019144562 20.936390955 5.1115028499
563 1 -123.7489026981 20.9386309423 5.1105996495
564 1 -125.0253948597 20.9375109486 2.8973072536
565 1 -125.0253948597 20.9375109486 7.324768681
566 1 -126.3163177915 23.0248290801 8.0590439804
567 1 -123.7634980779 23.0271390669 8.0581142153
568 1 -125.0398804998 23.0259490737 5.8448483842
569 1 -125.0398804998 23.0259490737 10.2723098116
570 1 -126.330282168 25.1132672052 11.0068241933
571 1 -123.7776270639 25.1156471916 11.0058678636
572 1 -125.053927181 25.1144571984 8.7926285971
573 1 -125.0675074686 27.2030353227 11.7406478925
574 1 -127.5008755215 10.4946903269 -11.8364933858
575 1 -126.2400761366 12.5836184491 -11.1039793271
576 1 -127.5171169967 12.5825684551 13.2473454226
577 1 -127.5171169967 12.5825684551 -8.8899351498
578 1 -126.2561255674 14.6716365766 -8.1572802981
579 1 -127.5330292528 14.6705865826 -10.3706258234
580 1 -127.5330292528 14.6705865826 -5.9431909607
581 1 -126.2717909092 16.7597947033 -5.2103767207
582 1 -127.54855742 16.7587447092 -7.423722246
583 1 -127.54855742 16.7587447092 -2.9962608186
584 1 -126.2870721621 18.8480928291 -2.2632871903
585 1 -127.5637289332 18.8469728355 -4.4765795862
586 1 -127.5637289332 18.8469728355 -0.0491181588
587 1 -126.3019144562 20.936390955 0.6840414225
588 1 -127.5784614876 20.9352709614 -1.5292244087
589 1 -127.5784614876 20.9352709614 2.898210454
590 1 -126.3163177915 23.0248290801 3.6316091177
591 1 -127.5927825181 23.0236390868 1.4183432865
592 1 -127.5927825181 23.0236390868 5.8457781492
593 1 -126.330282168 25.1132672052 6.5793893306
594 1 -127.606637155 25.1121472115 4.3661234995
595 1 -127.606637155 25.1121472115 8.7935849269
596 1 -126.3437527159 27.2018453294 9.527408626
597 1 -127.620052833 27.2006553362 7.3141427949
598 1 -127.620052833 27.2006553362 11.7416042223
599 1 -126.3567843049 29.2904934533 12.4756670039
600 1 -127.6330021173 29.2892334605 10.2624011727
601 1 -100.5786275729 0.0801495443 11.0650274849
602 1 -98.0227900176 0.0826695299 11.064921226
603 1 -99.3007087952 0.0814095371 8.8512569241