ITEM: TIMESTEP
0
ITEM: NUMBER OF ATOMS
864
ITEM: BOX BOUNDS pp pp pp
0.0000000000000000e+00 2.1690000000000001e+01
0.0000000000000000e+00 2.1690000000000001e+01
0.0000000000000000e+00 2.1690000000000001e+01
ITEM: ATOMS id type x y z c_pea 
1 1 0 0 0 -3.54022 
2 1 1.8075 1.8075 0 -3.54022 
3 1 1.8075 0 1.8075 -3.54022 
4 1 0 1.8075 1.8075 -3.54022 
5 1 3.615 0 0 -3.54022 
6 1 5.4225 1.8075 0 -3.54022 
7 1 5.4225 0 1.8075 -3.54022 
8 1 3.615 1.8075 1.8075 -3.54022 
9 1 7.23 0 0 -3.54022 
10 1 9.0375 1.8075 0 -3.54022 
11 1 9.0375 0 1.8075 -3.54022 
12 1 7.23 1.8075 1.8075 -3.54022 
13 1 10.845 0 0 -3.54022 
14 1 12.6525 1.8075 0 -3.54022 
15 1 12.6525 0 1.8075 -3.54022 
16 1 10.845 1.8075 1.8075 -3.54022 
17 1 14.46 0 0 -3.54022 
18 1 16.2675 1.8075 0 -3.54022 
19 1 16.2675 0 1.8075 -3.54022 
20 1 14.46 1.8075 1.8075 -3.54022 
21 1 18.075 0 0 -3.54022 
22 1 19.8825 1.8075 0 -3.54022 
23 1 19.8825 0 1.8075 -3.54022 
24 1 18.075 1.8075 1.8075 -3.54022 
25 1 0 3.615 0 -3.54022 
26 1 1.8075 5.4225 0 -3.54022 
27 1 1.8075 3.615 1.8075 -3.54022 
28 1 0 5.4225 1.8075 -3.54022 
29 1 3.615 3.615 0 -3.54022 
30 1 5.4225 5.4225 0 -3.54022 
31 1 5.4225 3.615 1.8075 -3.54022 
32 1 3.615 5.4225 1.8075 -3.54022 
33 1 7.23 3.615 0 -3.54022 
34 1 9.0375 5.4225 0 -3.54022 
35 1 9.0375 3.615 1.8075 -3.54022 
36 1 7.23 5.4225 1.8075 -3.54022 
37 1 10.845 3.615 0 -3.54022 
38 1 12.6525 5.4225 0 -3.54022 
39 1 12.6525 3.615 1.8075 -3.54022 
40 1 10.845 5.4225 1.8075 -3.54022 
41 1 14.46 3.615 0 -3.54022 
42 1 16.2675 5.4225 0 -3.54022 
43 1 16.2675 3.615 1.8075 -3.54022 
44 1 14.46 5.4225 1.8075 -3.54022 
45 1 18.075 3.615 0 -3.54022 
46 1 19.8825 5.4225 0 -3.54022 
47 1 19.8825 3.615 1.8075 -3.54022 
48 1 18.075 5.4225 1.8075 -3.54022 
49 1 0 7.23 0 -3.54022 
50 1 1.8075 9.0375 0 -3.54022 
51 1 1.8075 7.23 1.8075 -3.54022 
52 1 0 9.0375 1.8075 -3.54022 
53 1 3.615 7.23 0 -3.54022 
54 1 5.4225 9.0375 0 -3.54022 
55 1 5.4225 7.23 1.8075 -3.54022 
56 1 3.615 9.0375 1.8075 -3.54022 
57 1 7.23 7.23 0 -3.54022 
58 1 9.0375 9.0375 0 -3.54022 
59 1 9.0375 7.23 1.8075 -3.54022 
60 1 7.23 9.0375 1.8075 -3.54022 
61 1 10.845 7.23 0 -3.54022 
62 1 12.6525 9.0375 0 -3.54022 
63 1 12.6525 7.23 1.8075 -3.54022 
64 1 10.845 9.0375 1.8075 -3.54022 
65 1 14.46 7.23 0 -3.54022 
66 1 16.2675 9.0375 0 -3.54022 
67 1 16.2675 7.23 1.8075 -3.54022 
68 1 14.46 9.0375 1.8075 -3.54022 
69 1 18.075 7.23 0 -3.54022 
70 1 19.8825 9.0375 0 -3.54022 
71 1 19.8825 7.23 1.8075 -3.54022 
72 1 18.075 9.0375 1.8075 -3.54022 
73 1 0 10.845 0 -3.54022 
74 1 1.8075 12.6525 0 -3.54022 
75 1 1.8075 10.845 1.8075 -3.54022 
76 1 0 12.6525 1.8075 -3.54022 
77 1 3.615 10.845 0 -3.54022 
78 1 5.4225 12.6525 0 -3.54022 
79 1 5.4225 10.845 1.8075 -3.54022 
80 1 3.615 12.6525 1.8075 -3.54022 
81 1 7.23 10.845 0 -3.54022 
82 1 9.0375 12.6525 0 -3.54022 
83 1 9.0375 10.845 1.8075 -3.54022 
84 1 7.23 12.6525 1.8075 -3.54022 
85 1 10.845 10.845 0 -3.54022 
86 1 12.6525 12.6525 0 -3.54022 
87 1 12.6525 10.845 1.8075 -3.54022 
88 1 10.845 12.6525 1.8075 -3.54022 
89 1 14.46 10.845 0 -3.54022 
90 1 16.2675 12.6525 0 -3.54022 
91 1 16.2675 10.845 1.8075 -3.54022 
92 1 14.46 12.6525 1.8075 -3.54022 
93 1 18.075 10.845 0 -3.54022 
94 1 19.8825 12.6525 0 -3.54022 
95 1 19.8825 10.845 1.8075 -3.54022 
96 1 18.075 12.6525 1.8075 -3.54022 
97 1 0 14.46 0 -3.54022 
98 1 1.8075 16.2675 0 -3.54022 
99 1 1.8075 14.46 1.8075 -3.54022 
100 1 0 16.2675 1.8075 -3.54022 
101 1 3.615 14.46 0 -3.54022 
102 1 5.4225 16.2675 0 -3.54022 
103 1 5.4225 14.46 1.8075 -3.54022 
104 1 3.615 16.2675 1.8075 -3.54022 
105 1 7.23 14.46 0 -3.54022 
106 1 9.0375 16.2675 0 -3.54022 
107 1 9.0375 14.46 1.8075 -3.54022 
108 1 7.23 16.2675 1.8075 -3.54022 
109 1 10.845 14.46 0 -3.54022 
110 1 12.6525 16.2675 0 -3.54022 
111 1 12.6525 14.46 1.8075 -3.54022 
112 1 10.845 16.2675 1.8075 -3.54022 
113 1 14.46 14.46 0 -3.54022 
114 1 16.2675 16.2675 0 -3.54022 
115 1 16.2675 14.46 1.8075 -3.54022 
116 1 14.46 16.2675 1.8075 -3.54022 
117 1 18.075 14.46 0 -3.54022 
118 1 19.8825 16.2675 0 -3.54022 
119 1 19.8825 14.46 1.8075 -3.54022 
120 1 18.075 16.2675 1.8075 -3.54022 
121 1 0 18.075 0 -3.54022 
122 1 1.8075 19.8825 0 -3.54022 
123 1 1.8075 18.075 1.8075 -3.54022 
124 1 0 19.8825 1.8075 -3.54022 
125 1 3.615 18.075 0 -3.54022 
126 1 5.4225 19.8825 0 -3.54022 
127 1 5.4225 18.075 1.8075 -3.54022 
128 1 3.615 19.8825 1.8075 -3.54022 
129 1 7.23 18.075 0 -3.54022 
130 1 9.0375 19.8825 0 -3.54022 
131 1 9.0375 18.075 1.8075 -3.54022 
132 1 7.23 19.8825 1.8075 -3.54022 
133 1 10.845 18.075 0 -3.54022 
134 1 12.6525 19.8825 0 -3.54022 
135 1 12.6525 18.075 1.8075 -3.54022 
136 1 10.845 19.8825 1.8075 -3.54022 
137 1 14.46 18.075 0 -3.54022 
138 1 16.2675 19.8825 0 -3.54022 
139 1 16.2675 18.075 1.8075 -3.54022 
140 1 14.46 19.8825 1.8075 -3.54022 
141 1 18.075 18.075 0 -3.54022 
142 1 19.8825 19.8825 0 -3.54022 
143 1 19.8825 18.075 1.8075 -3.54022 
144 1 18.075 19.8825 1.8075 -3.54022 
145 1 0 0 3.615 -3.54022 
146 1 1.8075 1.8075 3.615 -3.54022 
147 1 1.8075 0 5.4225 -3.54022 
148 1 0 1.8075 5.4225 -3.54022 
149 1 3.615 0 3.615 -3.54022 
150 1 5.4225 1.8075 3.615 -3.54022 
151 1 5.4225 0 5.4225 -3.54022 
152 1 3.615 1.8075 5.4225 -3.54022 
153 1 7.23 0 3.615 -3.54022 
154 1 9.0375 1.8075 3.615 -3.54022 
155 1 9.0375 0 5.4225 -3.54022 
156 1 7.23 1.8075 5.4225 -3.54022 
157 1 10.845 0 3.615 -3.54022 
158 1 12.6525 1.8075 3.615 -3.54022 
159 1 12.6525 0 5.4225 -3.54022 
160 1 10.845 1.8075 5.4225 -3.54022 
161 1 14.46 0 3.615 -3.54022 
162 1 16.2675 1.8075 3.615 -3.54022 
163 1 16.2675 0 5.4225 -3.54022 
164 1 14.46 1.8075 5.4225 -3.54022 
165 1 18.075 0 3.615 -3.54022 
166 1 19.8825 1.8075 3.615 -3.54022 
167 1 19.8825 0 5.4225 -3.54022 
168 1 18.075 1.8075 5.4225 -3.54022 
169 1 0 3.615 3.615 -3.54022 
170 1 1.8075 5.4225 3.615 -3.54022 
171 1 1.8075 3.615 5.4225 -3.54022 
172 1 0 5.4225 5.4225 -3.54022 
173 1 3.615 3.615 3.615 -3.54022 
174 1 5.4225 5.4225 3.615 -3.54022 
175 1 5.4225 3.615 5.4225 -3.54022 
176 1 3.615 5.4225 5.4225 -3.54022 
177 1 7.23 3.615 3.615 -3.54022 
178 1 9.0375 5.4225 3.615 -3.54022 
179 1 9.0375 3.615 5.4225 -3.54022 
180 1 7.23 5.4225 5.4225 -3.54022 
181 1 10.845 3.615 3.615 -3.54022 
182 1 12.6525 5.4225 3.615 -3.54022 
183 1 12.6525 3.615 5.4225 -3.54022 
184 1 10.845 5.4225 5.4225 -3.54022 
185 1 14.46 3.615 3.615 -3.54022 
186 1 16.2675 5.4225 3.615 -3.54022 
187 1 16.2675 3.615 5.4225 -3.54022 
188 1 14.46 5.4225 5.4225 -3.54022 
189 1 18.075 3.615 3.615 -3.54022 
190 1 19.8825 5.4225 3.615 -3.54022 
191 1 19.8825 3.615 5.4225 -3.54022 
192 1 18.075 5.4225 5.4225 -3.54022 
193 1 0 7.23 3.615 -3.54022 
194 1 1.8075 9.0375 3.615 -3.54022 
195 1 1.8075 7.23 5.4225 -3.54022 
196 1 0 9.0375 5.4225 -3.54022 
197 1 3.615 7.23 3.615 -3.54022 
198 1 5.4225 9.0375 3.615 -3.54022 
199 1 5.4225 7.23 5.4225 -3.54022 
200 1 3.615 9.0375 5.4225 -3.54022 
201 1 7.23 7.23 3.615 -3.54022 
202 1 9.0375 9.0375 3.615 -3.54022 
203 1 9.0375 7.23 5.4225 -3.54022 
204 1 7.23 9.0375 5.4225 -3.54022 
205 1 10.845 7.23 3.615 -3.54022 
206 1 12.6525 9.0375 3.615 -3.54022 
207 1 12.6525 7.23 5.4225 -3.54022 
208 1 10.845 9.0375 5.4225 -3.54022 
209 1 14.46 7.23 3.615 -3.54022 
210 1 16.2675 9.0375 3.615 -3.54022 
211 1 16.2675 7.23 5.4225 -3.54022 
212 1 14.46 9.0375 5.4225 -3.54022 
213 1 18.075 7.23 3.615 -3.54022 
214 1 19.8825 9.0375 3.615 -3.54022 
215 1 19.8825 7.23 5.4225 -3.54022 
216 1 18.075 9.0375 5.4225 -3.54022 
217 1 0 10.845 3.615 -3.54022 
218 1 1.8075 12.6525 3.615 -3.54022 
219 1 1.8075 10.845 5.4225 -3.54022 
220 1 0 12.6525 5.4225 -3.54022 
221 1 3.615 10.845 3.615 -3.54022 
222 1 5.4225 12.6525 3.615 -3.54022 
223 1 5.4225 10.845 5.4225 -3.54022 
224 1 3.615 12.6525 5.4225 -3.54022 
225 1 7.23 10.845 3.615 -3.54022 
226 1 9.0375 12.6525 3.615 -3.54022 
227 1 9.0375 10.845 5.4225 -3.54022 
228 1 7.23 12.6525 5.4225 -3.54022 
229 1 10.845 10.845 3.615 -3.54022 
230 1 12.6525 12.6525 3.615 -3.54022 
231 1 12.6525 10.845 5.4225 -3.54022 
232 1 10.845 12.6525 5.4225 -3.54022 
233 1 14.46 10.845 3.615 -3.54022 
234 1 16.2675 12.6525 3.615 -3.54022 
235 1 16.2675 10.845 5.4225 -3.54022 
236 1 14.46 12.6525 5.4225 -3.54022 
237 1 18.075 10.845 3.615 -3.54022 
238 1 19.8825 12.6525 3.615 -3.54022 
239 1 19.8825 10.845 5.4225 -3.54022 
240 1 18.075 12.6525 5.4225 -3.54022 
241 1 0 14.46 3.615 -3.54022 
242 1 1.8075 16.2675 3.615 -3.54022 
243 1 1.8075 14.46 5.4225 -3.54022 
244 1 0 16.2675 5.4225 -3.54022 
245 1 3.615 14.46 3.615 -3.54022 
246 1 5.4225 16.2675 3.615 -3.54022 
247 1 5.4225 14.46 5.4225 -3.54022 
248 1 3.615 16.2675 5.4225 -3.54022 
249 1 7.23 14.46 3.615 -3.54022 
250 1 9.0375 16.2675 3.615 -3.54022 
251 1 9.0375 14.46 5.4225 -3.54022 
252 1 7.23 16.2675 5.4225 -3.54022 
253 1 10.845 14.46 3.615 -3.54022 
254 1 12.6525 16.2675 3.615 -3.54022 
255 1 12.6525 14.46 5.4225 -3.54022 
256 1 10.845 16.2675 5.4225 -3.54022 
257 1 14.46 14.46 3.615 -3.54022 
258 1 16.2675 16.2675 3.615 -3.54022 
259 1 16.2675 14.46 5.4225 -3.54022 
260 1 14.46 16.2675 5.4225 -3.54022 
261 1 18.075 14.46 3.615 -3.54022 
262 1 19.8825 16.2675 3.615 -3.54022 
263 1 19.8825 14.46 5.4225 -3.54022 
264 1 18.075 16.2675 5.4225 -3.54022 
265 1 0 18.075 3.615 -3.54022 
266 1 1.8075 19.8825 3.615 -3.54022 
267 1 1.8075 18.075 5.4225 -3.54022 
268 1 0 19.8825 5.4225 -3.54022 
269 1 3.615 18.075 3.615 -3.54022 
270 1 5.4225 19.8825 3.615 -3.54022 
271 1 5.4225 18.075 5.4225 -3.54022 
272 1 3.615 19.8825 5.4225 -3.54022 
273 1 7.23 18.075 3.615 -3.54022 
274 1 9.0375 19.8825 3.615 -3.54022 
275 1 9.0375 18.075 5.4225 -3.54022 
276 1 7.23 19.8825 5.4225 -3.54022 
277 1 10.845 18.075 3.615 -3.54022 
278 1 12.6525 19.8825 3.615 -3.54022 
279 1 12.6525 18.075 5.4225 -3.54022 
280 1 10.845 19.8825 5.4225 -3.54022 
281 1 14.46 18.075 3.615 -3.54022 
282 1 16.2675 19.8825 3.615 -3.54022 
283 1 16.2675 18.075 5.4225 -3.54022 
284 1 14.46 19.8825 5.4225 -3.54022 
285 1 18.075 18.075 3.615 -3.54022 
286 1 19.8825 19.8825 3.615 -3.54022 
287 1 19.8825 18.075 5.4225 -3.54022 
288 1 18.075 19.8825 5.4225 -3.54022 
289 1 0 0 7.23 -3.54022 
290 1 1.8075 1.8075 7.23 -3.54022 
291 1 1.8075 0 9.0375 -3.54022 
292 1 0 1.8075 9.0375 -3.54022 
293 1 3.615 0 7.23 -3.54022 
294 1 5.4225 1.8075 7.23 -3.54022 
295 1 5.4225 0 9.0375 -3.54022 
296 1 3.615 1.8075 9.0375 -3.54022 
297 1 7.23 0 7.23 -3.54022 
298 1 9.0375 1.8075 7.23 -3.54022 
299 1 9.0375 0 9.0375 -3.54022 
300 1 7.23 1.8075 9.0375 -3.54022 
301 1 10.845 0 7.23 -3.54022 
302 1 12.6525 1.8075 7.23 -3.54022 
303 1 12.6525 0 9.0375 -3.54022 
304 1 10.845 1.8075 9.0375 -3.54022 
305 1 14.46 0 7.23 -3.54022 
306 1 16.2675 1.8075 7.23 -3.54022 
307 1 16.2675 0 9.0375 -3.54022 
308 1 14.46 1.8075 9.0375 -3.54022 
309 1 18.075 0 7.23 -3.54022 
310 1 19.8825 1.8075 7.23 -3.54022 
311 1 19.8825 0 9.0375 -3.54022 
312 1 18.075 1.8075 9.0375 -3.54022 
313 1 0 3.615 7.23 -3.54022 
314 1 1.8075 5.4225 7.23 -3.54022 
315 1 1.8075 3.615 9.0375 -3.54022 
316 1 0 5.4225 9.0375 -3.54022 
317 1 3.615 3.615 7.23 -3.54022 
318 1 5.4225 5.4225 7.23 -3.54022 
319 1 5.4225 3.615 9.0375 -3.54022 
320 1 3.615 5.4225 9.0375 -3.54022 
321 1 7.23 3.615 7.23 -3.54022 
322 1 9.0375 5.4225 7.23 -3.54022 
323 1 9.0375 3.615 9.0375 -3.54022 
324 1 7.23 5.4225 9.0375 -3.54022 
325 1 10.845 3.615 7.23 -3.54022 
326 1 12.6525 5.4225 7.23 -3.54022 
327 1 12.6525 3.615 9.0375 -3.54022 
328 1 10.845 5.4225 9.0375 -3.54022 
329 1 14.46 3.615 7.23 -3.54022 
330 1 16.2675 5.4225 7.23 -3.54022 
331 1 16.2675 3.615 9.0375 -3.54022 
332 1 14.46 5.4225 9.0375 -3.54022 
333 1 18.075 3.615 7.23 -3.54022 
334 1 19.8825 5.4225 7.23 -3.54022 
335 1 19.8825 3.615 9.0375 -3.54022 
336 1 18.075 5.4225 9.0375 -3.54022 
337 1 0 7.23 7.23 -3.54022 
338 1 1.8075 9.0375 7.23 -3.54022 
339 1 1.8075 7.23 9.0375 -3.54022 
340 1 0 9.0375 9.0375 -3.54022 
341 1 3.615 7.23 7.23 -3.54022 
342 1 5.4225 9.0375 7.23 -3.54022 
343 1 5.4225 7.23 9.0375 -3.54022 
344 1 3.615 9.0375 9.0375 -3.54022 
345 1 7.23 7.23 7.23 -3.54022 
346 1 9.0375 9.0375 7.23 -3.54022 
347 1 9.0375 7.23 9.0375 -3.54022 
348 1 7.23 9.0375 9.0375 -3.54022 
349 1 10.845 7.23 7.23 -3.54022 
350 1 12.6525 9.0375 7.23 -3.54022 
351 1 12.6525 7.23 9.0375 -3.54022 
352 1 10.845 9.0375 9.0375 -3.54022 
353 1 14.46 7.23 7.23 -3.54022 
354 1 16.2675 9.0375 7.23 -3.54022 
355 1 16.2675 7.23 9.0375 -3.54022 
356 1 14.46 9.0375 9.0375 -3.54022 
357 1 18.075 7.23 7.23 -3.54022 
358 1 19.8825 9.0375 7.23 -3.54022 
359 1 19.8825 7.23 9.0375 -3.54022 
360 1 18.075 9.0375 9.0375 -3.54022 
361 1 0 10.845 7.23 -3.54022 
362 1 1.8075 12.6525 7.23 -3.54022 
363 1 1.8075 10.845 9.0375 -3.54022 
364 1 0 12.6525 9.0375 -3.54022 
365 1 3.615 10.845 7.23 -3.54022 
366 1 5.4225 12.6525 7.23 -3.54022 
367 1 5.4225 10.845 9.0375 -3.54022 
368 1 3.615 12.6525 9.0375 -3.54022 
369 1 7.23 10.845 7.23 -3.54022 
370 1 9.0375 12.6525 7.23 -3.54022 
371 1 9.0375 10.845 9.0375 -3.54022 
372 1 7.23 12.6525 9.0375 -3.54022 
373 1 10.845 10.845 7.23 -3.54022 
374 1 12.6525 12.6525 7.23 -3.54022 
375 1 12.6525 10.845 9.0375 -3.54022 
376 1 10.845 12.6525 9.0375 -3.54022 
377 1 14.46 10.845 7.23 -3.54022 
378 1 16.2675 12.6525 7.23 -3.54022 
379 1 16.2675 10.845 9.0375 -3.54022 
380 1 14.46 12.6525 9.0375 -3.54022 
381 1 18.075 10.845 7.23 -3.54022 
382 1 19.8825 12.6525 7.23 -3.54022 
383 1 19.8825 10.845 9.0375 -3.54022 
384 1 18.075 12.6525 9.0375 -3.54022 
385 1 0 14.46 7.23 -3.54022 
386 1 1.8075 16.2675 7.23 -3.54022 
387 1 1.8075 14.46 9.0375 -3.54022 
388 1 0 16.2675 9.0375 -3.54022 
389 1 3.615 14.46 7.23 -3.54022 
390 1 5.4225 16.2675 7.23 -3.54022 
391 1 5.4225 14.46 9.0375 -3.54022 
392 1 3.615 16.2675 9.0375 -3.54022 
393 1 7.23 14.46 7.23 -3.54022 
394 1 9.0375 16.2675 7.23 -3.54022 
395 1 9.0375 14.46 9.0375 -3.54022 
396 1 7.23 16.2675 9.0375 -3.54022 
397 1 10.845 14.46 7.23 -3.54022 
398 1 12.6525 16.2675 7.23 -3.54022 
399 1 12.6525 14.46 9.0375 -3.54022 
400 1 10.845 16.2675 9.0375 -3.54022 
401 1 14.46 14.46 7.23 -3.54022 
402 1 16.2675 16.2675 7.23 -3.54022 
403 1 16.2675 14.46 9.0375 -3.54022 
404 1 14.46 16.2675 9.0375 -3.54022 
405 1 18.075 14.46 7.23 -3.54022 
406 1 19.8825 16.2675 7.23 -3.54022 
407 1 19.8825 14.46 9.0375 -3.54022 
408 1 18.075 16.2675 9.0375 -3.54022 
409 1 0 18.075 7.23 -3.54022 
410 1 1.8075 19.8825 7.23 -3.54022 
411 1 1.8075 18.075 9.0375 -3.54022 
412 1 0 19.8825 9.0375 -3.54022 
413 1 3.615 18.075 7.23 -3.54022 
414 1 5.4225 19.8825 7.23 -3.54022 
415 1 5.4225 18.075 9.0375 -3.54022 
416 1 3.615 19.8825 9.0375 -3.54022 
417 1 7.23 18.075 7.23 -3.54022 
418 1 9.0375 19.8825 7.23 -3.54022 
419 1 9.0375 18.075 9.0375 -3.54022 
420 1 7.23 19.8825 9.0375 -3.54022 
421 1 10.845 18.075 7.23 -3.54022 
422 1 12.6525 19.8825 7.23 -3.54022 
423 1 12.6525 18.075 9.0375 -3.54022 
424 1 10.845 19.8825 9.0375 -3.54022 
425 1 14.46 18.075 7.23 -3.54022 
426 1 16.2675 19.8825 7.23 -3.54022 
427 1 16.2675 18.075 9.0375 -3.54022 
428 1 14.46 19.8825 9.0375 -3.54022 
429 1 18.075 18.075 7.23 -3.54022 
430 1 19.8825 19.8825 7.23 -3.54022 
431 1 19.8825 18.075 9.0375 -3.54022 
432 1 18.075 19.8825 9.0375 -3.54022 
433 1 0 0 10.845 -3.54022 
434 1 1.8075 1.8075 10.845 -3.54022 
435 1 1.8075 0 12.6525 -3.54022 
436 1 0 1.8075 12.6525 -3.54022 
437 1 3.615 0 10.845 -3.54022 
438 1 5.4225 1.8075 10.845 -3.54022 
439 1 5.4225 0 12.6525 -3.54022 
440 1 3.615 1.8075 12.6525 -3.54022 
441 1 7.23 0 10.845 -3.54022 
442 1 9.0375 1.8075 10.845 -3.54022 
443 1 9.0375 0 12.6525 -3.54022 
444 1 7.23 1.8075 12.6525 -3.54022 
445 1 10.845 0 10.845 -3.54022 
446 1 12.6525 1.8075 10.845 -3.54022 
447 1 12.6525 0 12.6525 -3.54022 
448 1 10.845 1.8075 12.6525 -3.54022 
449 1 14.46 0 10.845 -3.54022 
450 1 16.2675 1.8075 10.845 -3.54022 
451 1 16.2675 0 12.6525 -3.54022 
452 1 14.46 1.8075 12.6525 -3.54022 
453 1 18.075 0 10.845 -3.54022 
454 1 19.8825 1.8075 10.845 -3.54022 
455 1 19.8825 0 12.6525 -3.54022 
456 1 18.075 1.8075 12.6525 -3.54022 
457 1 0 3.615 10.845 -3.54022 
458 1 1.8075 5.4225 10.845 -3.54022 
459 1 1.8075 3.615 12.6525 -3.54022 
460 1 0 5.4225 12.6525 -3.54022 
461 1 3.615 3.615 10.845 -3.54022 
462 1 5.4225 5.4225 10.845 -3.54022 
463 1 5.4225 3.615 12.6525 -3.54022 
464 1 3.615 5.4225 12.6525 -3.54022 
465 1 7.23 3.615 10.845 -3.54022 
466 1 9.0375 5.4225 10.845 -3.54022 
467 1 9.0375 3.615 12.6525 -3.54022 
468 1 7.23 5.4225 12.6525 -3.54022 
469 1 10.845 3.615 10.845 -3.54022 
470 1 12.6525 5.4225 10.845 -3.54022 
471 1 12.6525 3.615 12.6525 -3.54022 
472 1 10.845 5.4225 12.6525 -3.54022 
473 1 14.46 3.615 10.845 -3.54022 
474 1 16.2675 5.4225 10.845 -3.54022 
475 1 16.2675 3.615 12.6525 -3.54022 
476 1 14.46 5.4225 12.6525 -3.54022 
477 1 18.075 3.615 10.845 -3.54022 
478 1 19.8825 5.4225 10.845 -3.54022 
479 1 19.8825 3.615 12.6525 -3.54022 
480 1 18.075 5.4225 12.6525 -3.54022 
481 1 0 7.23 10.845 -3.54022 
482 1 1.8075 9.0375 10.845 -3.54022 
483 1 1.8075 7.23 12.6525 -3.54022 
484 1 0 9.0375 12.6525 -3.54022 
485 1 3.615 7.23 10.845 -3.54022 
486 1 5.4225 9.0375 10.845 -3.54022 
487 1 5.4225 7.23 12.6525 -3.54022 
488 1 3.615 9.0375 12.6525 -3.54022 
489 1 7.23 7.23 10.845 -3.54022 
490 1 9.0375 9.0375 10.845 -3.54022 
491 1 9.0375 7.23 12.6525 -3.54022 
492 1 7.23 9.0375 12.6525 -3.54022 
493 1 10.845 7.23 10.845 -3.54022 
494 1 12.6525 9.0375 10.845 -3.54022 
495 1 12.6525 7.23 12.6525 -3.54022 
496 1 10.845 9.0375 12.6525 -3.54022 
497 1 14.46 7.23 10.845 -3.54022 
498 1 16.2675 9.0375 10.845 -3.54022 
499 1 16.2675 7.23 12.6525 -3.54022 
500 1 14.46 9.0375 12.6525 -3.54022 
501 1 18.075 7.23 10.845 -3.54022 
502 1 19.8825 9.0375 10.845 -3.54022 
503 1 19.8825 7.23 12.6525 -3.54022 
504 1 18.075 9.0375 12.6525 -3.54022 
505 1 0 10.845 10.845 -3.54022 
506 1 1.8075 12.6525 10.845 -3.54022 
507 1 1.8075 10.845 12.6525 -3.54022 
508 1 0 12.6525 12.6525 -3.54022 
509 1 3.615 10.845 10.845 -3.54022 
510 1 5.4225 12.6525 10.845 -3.54022 
511 1 5.4225 10.845 12.6525 -3.54022 
512 1 3.615 12.6525 12.6525 -3.54022 
513 1 7.23 10.845 10.845 -3.54022 
514 1 9.0375 12.6525 10.845 -3.54022 
515 1 9.0375 10.845 12.6525 -3.54022 
516 1 7.23 12.6525 12.6525 -3.54022 
517 1 10.845 10.845 10.845 -3.54022 
518 1 12.6525 12.6525 10.845 -3.54022 
519 1 12.6525 10.845 12.6525 -3.54022 
520 1 10.845 12.6525 12.6525 -3.54022 
521 1 14.46 10.845 10.845 -3.54022 
522 1 16.2675 12.6525 10.845 -3.54022 
523 1 16.2675 10.845 12.6525 -3.54022 
524 1 14.46 12.6525 12.6525 -3.54022 
525 1 18.075 10.845 10.845 -3.54022 
526 1 19.8825 12.6525 10.845 -3.54022 
527 1 19.8825 10.845 12.6525 -3.54022 
528 1 18.075 12.6525 12.6525 -3.54022 
529 1 0 14.46 10.845 -3.54022 
530 1 1.8075 16.2675 10.845 -3.54022 
531 1 1.8075 14.46 12.6525 -3.54022 
532 1 0 16.2675 12.6525 -3.54022 
533 1 3.615 14.46 10.845 -3.54022 
534 1 5.4225 16.2675 10.845 -3.54022 
535 1 5.4225 14.46 12.6525 -3.54022 
536 1 3.615 16.2675 12.6525 -3.54022 
537 1 7.23 14.46 10.845 -3.54022 
538 1 9.0375 16.2675 10.845 -3.54022 
539 1 9.0375 14.46 12.6525 -3.54022 
540 1 7.23 16.2675 12.6525 -3.54022 
541 1 10.845 14.46 10.845 -3.54022 
542 1 12.6525 16.2675 10.845 -3.54022 
543 1 12.6525 14.46 12.6525 -3.54022 
544 1 10.845 16.2675 12.6525 -3.54022 
545 1 14.46 14.46 10.845 -3.54022 
546 1 16.2675 16.2675 10.845 -3.54022 
547 1 16.2675 14.46 12.6525 -3.54022 
548 1 14.46 16.2675 12.6525 -3.54022 
549 1 18.075 14.46 10.845 -3.54022 
550 1 19.8825 16.2675 10.845 -3.54022 
551 1 19.8825 14.46 12.6525 -3.54022 
552 1 18.075 16.2675 12.6525 -3.54022 
553 1 0 18.075 10.845 -3.54022 
554 1 1.8075 19.8825 10.845 -3.54022 
555 1 1.8075 18.075 12.6525 -3.54022 
556 1 0 19.8825 12.6525 -3.54022 
557 1 3.615 18.075 10.845 -3.54022 
558 1 5.4225 19.8825 10.845 -3.54022 
559 1 5.4225 18.075 12.6525 -3.54022 
560 1 3.615 19.8825 12.6525 -3.54022 
561 1 7.23 18.075 10.845 -3.54022 
562 1 9.0375 19.8825 10.845 -3.54022 
563 1 9.0375 18.075 12.6525 -3.54022 
564 1 7.23 19.8825 12.6525 -3.54022 
565 1 10.845 18.075 10.845 -3.54022 
566 1 12.6525 19.8825 10.845 -3.54022 
567 1 12.6525 18.075 12.6525 -3.54022 
568 1 10.845 19.8825 12.6525 -3.54022 
569 1 14.46 18.075 10.845 -3.54022 
570 1 16.2675 19.8825 10.845 -3.54022 
571 1 16.2675 18.075 12.6525 -3.54022 
572 1 14.46 19.8825 12.6525 -3.54022 
573 1 18.075 18.075 10.845 -3.54022 
574 1 19.8825 19.8825 10.845 -3.54022 
575 1 19.8825 18.075 12.6525 -3.54022 
576 1 18.075 19.8825 12.6525 -3.54022 
577 1 0 0 14.46 -3.54022 
578 1 1.8075 1.8075 14.46 -3.54022 
579 1 1.8075 0 16.2675 -3.54022 
580 1 0 1.8075 16.2675 -3.54022 
581 1 3.615 0 14.46 -3.54022 
582 1 5.4225 1.8075 14.46 -3.54022 
583 1 5.4225 0 16.2675 -3.54022 
584 1 3.615 1.8075 16.2675 -3.54022 
585 1 7.23 0 14.46 -3.54022 
586 1 9.0375 1.8075 14.46 -3.54022 
587 1 9.0375 0 16.2675 -3.54022 
588 1 7.23 1.8075 16.2675 -3.54022 
589 1 10.845 0 14.46 -3.54022 
590 1 12.6525 1.8075 14.46 -3.54022 
591 1 12.6525 0 16.2675 -3.54022 
592 1 10.845 1.8075 16.2675 -3.54022 
593 1 14.46 0 14.46 -3.54022 
594 1 16.2675 1.8075 14.46 -3.54022 
595 1 16.2675 0 16.2675 -3.54022 
596 1 14.46 1.8075 16.2675 -3.54022 
597 1 18.075 0 14.46 -3.54022 
598 1 19.8825 1.8075 14.46 -3.54022 
599 1 19.8825 0 16.2675 -3.54022 
600 1 18.075 1.8075 16.2675 -3.54022 
601 1 0 3.615 14.46 -3.54022 
602 1 1.8075 5.4225 14.46 -3.54022 
603 1 1.8075 3.615 16.2675 -3.54022 
604 1 0 5.4225 16.2675 -3.54022 
605 1 3.615 3.615 14.46 -3.54022 
606 1 5.4225 5.4225 14.46 -3.54022 
607 1 5.4225 3.615 16.2675 -3.54022 
608 1 3.615 5.4225 16.2675 -3.54022 
609 1 7.23 3.615 14.46 -3.54022 
610 1 9.0375 5.4225 14.46 -3.54022 
611 1 9.0375 3.615 16.2675 -3.54022 
612 1 7.23 5.4225 16.2675 -3.54022 
613 1 10.845 3.615 14.46 -3.54022 
614 1 12.6525 5.4225 14.46 -3.54022 
615 1 12.6525 3.615 16.2675 -3.54022 
616 1 10.845 5.4225 16.2675 -3.54022 
617 1 14.46 3.615 14.46 -3.54022 
618 1 16.2675 5.4225 14.46 -3.54022 
619 1 16.2675 3.615 16.2675 -3.54022 
620 1 14.46 5.4225 16.2675 -3.54022 
621 1 18.075 3.615 14.46 -3.54022 
622 1 19.8825 5.4225 14.46 -3.54022 
623 1 19.8825 3.615 16.2675 -3.54022 
624 1 18.075 5.4225 16.2675 -3.54022 
625 1 0 7.23 14.46 -3.54022 
626 1 1.8075 9.0375 14.46 -3.54022 
627 1 1.8075 7.23 16.2675 -3.54022 
628 1 0 9.0375 16.2675 -3.54022 
629 1 3.615 7.23 14.46 -3.54022 
630 1 5.4225 9.0375 14.46 -3.54022 
631 1 5.4225 7.23 16.2675 -3.54022 
632 1 3.615 9.0375 16.2675 -3.54022 
633 1 7.23 7.23 14.46 -3.54022 
634 1 9.0375 9.0375 14.46 -3.54022 
635 1 9.0375 7.23 16.2675 -3.54022 
636 1 7.23 9.0375 16.2675 -3.54022 
637 1 10.845 7.23 14.46 -3.54022 
638 1 12.6525 9.0375 14.46 -3.54022 
639 1 12.6525 7.23 16.2675 -3.54022 
640 1 10.845 9.0375 16.2675 -3.54022 
641 1 14.46 7.23 14.46 -3.54022 
642 1 16.2675 9.0375 14.46 -3.54022 
643 1 16.2675 7.23 16.2675 -3.54022 
644 1 14.46 9.0375 16.2675 -3.54022 
645 1 18.075 7.23 14.46 -3.54022 
646 1 19.8825 9.0375 14.46 -3.54022 
647 1 19.8825 7.23 16.2675 -3.54022 
648 1 18.075 9.0375 16.2675 -3.54022 
649 1 0 10.845 14.46 -3.54022 
650 1 1.8075 12.6525 14.46 -3.54022 
651 1 1.8075 10.845 16.2675 -3.54022 
652 1 0 12.6525 16.2675 -3.54022 
653 1 3.615 10.845 14.46 -3.54022 
654 1 5.4225 12.6525 14.46 -3.54022 
655 1 5.4225 10.845 16.2675 -3.54022 
656 1 3.615 12.6525 16.2675 -3.54022 
657 1 7.23 10.845 14.46 -3.54022 
658 1 9.0375 12.6525 14.46 -3.54022 
659 1 9.0375 10.845 16.2675 -3.54022 
660 1 7.23 12.6525 16.2675 -3.54022 
661 1 10.845 10.845 14.46 -3.54022 
662 1 12.6525 12.6525 14.46 -3.54022 
663 1 12.6525 10.845 16.2675 -3.54022 
664 1 10.845 12.6525 16.2675 -3.54022 
665 1 14.46 10.845 14.46 -3.54022 
666 1 16.2675 12.6525 14.46 -3.54022 
667 1 16.2675 10.845 16.2675 -3.54022 
668 1 14.46 12.6525 16.2675 -3.54022 
669 1 18.075 10.845 14.46 -3.54022 
670 1 19.8825 12.6525 14.46 -3.54022 
671 1 19.8825 10.845 16.2675 -3.54022 
672 1 18.075 12.6525 16.2675 -3.54022 
673 1 0 14.46 14.46 -3.54022 
674 1 1.8075 16.2675 14.46 -3.54022 
675 1 1.8075 14.46 16.2675 -3.54022 
676 1 0 16.2675 16.2675 -3.54022 
677 1 3.615 14.46 14.46 -3.54022 
678 1 5.4225 16.2675 14.46 -3.54022 
679 1 5.4225 14.46 16.2675 -3.54022 
680 1 3.615 16.2675 16.2675 -3.54022 
681 1 7.23 14.46 14.46 -3.54022 
682 1 9.0375 16.2675 14.46 -3.54022 
683 1 9.0375 14.46 16.2675 -3.54022 
684 1 7.23 16.2675 16.2675 -3.54022 
685 1 10.845 14.46 14.46 -3.54022 
686 1 12.6525 16.2675 14.46 -3.54022 
687 1 12.6525 14.46 16.2675 -3.54022 
688 1 10.845 16.2675 16.2675 -3.54022 
689 1 14.46 14.46 14.46 -3.54022 
690 1 16.2675 16.2675 14.46 -3.54022 
691 1 16.2675 14.46 16.2675 -3.54022 
692 1 14.46 16.2675 16.2675 -3.54022 
693 1 18.075 14.46 14.46 -3.54022 
694 1 19.8825 16.2675 14.46 -3.54022 
695 1 19.8825 14.46 16.2675 -3.54022 
696 1 18.075 16.2675 16.2675 -3.54022 
697 1 0 18.075 14.46 -3.54022 
698 1 1.8075 19.8825 14.46 -3.54022 
699 1 1.8075 18.075 16.2675 -3.54022 
700 1 0 19.8825 16.2675 -3.54022 
701 1 3.615 18.075 14.46 -3.54022 
702 1 5.4225 19.8825 14.46 -3.54022 
703 1 5.4225 18.075 16.2675 -3.54022 
704 1 3.615 19.8825 16.2675 -3.54022 
705 1 7.23 18.075 14.46 -3.54022 
706 1 9.0375 19.8825 14.46 -3.54022 
707 1 9.0375 18.075 16.2675 -3.54022 
708 1 7.23 19.8825 16.2675 -3.54022 
709 1 10.845 18.075 14.46 -3.54022 
710 1 12.6525 19.8825 14.46 -3.54022 
711 1 12.6525 18.075 16.2675 -3.54022 
712 1 10.845 19.8825 16.2675 -3.54022 
713 1 14.46 18.075 14.46 -3.54022 
714 1 16.2675 19.8825 14.46 -3.54022 
715 1 16.2675 18.075 16.2675 -3.54022 
716 1 14.46 19.8825 16.2675 -3.54022 
717 1 18.075 18.075 14.46 -3.54022 
718 1 19.8825 19.8825 14.46 -3.54022 
719 1 19.8825 18.075 16.2675 -3.54022 
720 1 18.075 19.8825 16.2675 -3.54022 
721 1 0 0 18.075 -3.54022 
722 1 1.8075 1.8075 18.075 -3.54022 
723 1 1.8075 0 19.8825 -3.54022 
724 1 0 1.8075 19.8825 -3.54022 
725 1 3.615 0 18.075 -3.54022 
726 1 5.4225 1.8075 18.075 -3.54022 
727 1 5.4225 0 19.8825 -3.54022 
728 1 3.615 1.8075 19.8825 -3.54022 
729 1 7.23 0 18.075 -3.54022 
730 1 9.0375 1.8075 18.075 -3.54022 
731 1 9.0375 0 19.8825 -3.54022 
732 1 7.23 1.8075 19.8825 -3.54022 
733 1 10.845 0 18.075 -3.54022 
734 1 12.6525 1.8075 18.075 -3.54022 
735 1 12.6525 0 19.8825 -3.54022 
736 1 10.845 1.8075 19.8825 -3.54022 
737 1 14.46 0 18.075 -3.54022 
738 1 16.2675 1.8075 18.075 -3.54022 
739 1 16.2675 0 19.8825 -3.54022 
740 1 14.46 1.8075 19.8825 -3.54022 
741 1 18.075 0 18.075 -3.54022 
742 1 19.8825 1.8075 18.075 -3.54022 
743 1 19.8825 0 19.8825 -3.54022 
744 1 18.075 1.8075 19.8825 -3.54022 
745 1 0 3.615 18.075 -3.54022 
746 1 1.8075 5.4225 18.075 -3.54022 
747 1 1.8075 3.615 19.8825 -3.54022 
748 1 0 5.4225 19.8825 -3.54022 
749 1 3.615 3.615 18.075 -3.54022 
750 1 5.4225 5.4225 18.075 -3.54022 
751 1 5.4225 3.615 19.8825 -3.54022 
752 1 3.615 5.4225 19.8825 -3.54022 
753 1 7.23 3.615 18.075 -3.54022 
754 1 9.0375 5.4225 18.075 -3.54022 
755 1 9.0375 3.615 19.8825 -3.54022 
756 1 7.23 5.4225 19.8825 -3.54022 
757 1 10.845 3.615 18.075 -3.54022 
758 1 12.6525 5.4225 18.075 -3.54022 
759 1 12.6525 3.615 19.8825 -3.54022 
760 1 10.845 5.4225 19.8825 -3.54022 
761 1 14.46 3.615 18.075 -3.54022 
762 1 16.2675 5.4225 18.075 -3.54022 
763 1 16.2675 3.615 19.8825 -3.54022 
764 1 14.46 5.4225 19.8825 -3.54022 
765 1 18.075 3.615 18.075 -3.54022 
766 1 19.8825 5.4225 18.075 -3.54022 
767 1 19.8825 3.615 19.8825 -3.54022 
768 1 18.075 5.4225 19.8825 -3.54022 
769 1 0 7.23 18.075 -3.54022 
770 1 1.8075 9.0375 18.075 -3.54022 
771 1 1.8075 7.23 19.8825 -3.54022 
772 1 0 9.0375 19.8825 -3.54022 
773 1 3.615 7.23 18.075 -3.54022 
774 1 5.4225 9.0375 18.075 -3.54022 
775 1 5.4225 7.23 19.8825 -3.54022 
776 1 3.615 9.0375 19.8825 -3.54022 
777 1 7.23 7.23 18.075 -3.54022 
778 1 9.0375 9.0375 18.075 -3.54022 
779 1 9.0375 7.23 19.8825 -3.54022 
780 1 7.23 9.0375 19.8825 -3.54022 
781 1 10.845 7.23 18.075 -3.54022 
782 1 12.6525 9.0375 18.075 -3.54022 
783 1 12.6525 7.23 19.8825 -3.54022 
784 1 10.845 9.0375 19.8825 -3.54022 
785 1 14.46 7.23 18.075 -3.54022 
786 1 16.2675 9.0375 18.075 -3.54022 
787 1 16.2675 7.23 19.8825 -3.54022 
788 1 14.46 9.0375 19.8825 -3.54022 
789 1 18.075 7.23 18.075 -3.54022 
790 1 19.8825 9.0375 18.075 -3.54022 
791 1 19.8825 7.23 19.8825 -3.54022 
792 1 18.075 9.0375 19.8825 -3.54022 
793 1 0 10.845 18.075 -3.54022 
794 1 1.8075 12.6525 18.075 -3.54022 
795 1 1.8075 10.845 19.8825 -3.54022 
796 1 0 12.6525 19.8825 -3.54022 
797 1 3.615 10.845 18.075 -3.54022 
798 1 5.4225 12.6525 18.075 -3.54022 
799 1 5.4225 10.845 19.8825 -3.54022 
800 1 3.615 12.6525 19.8825 -3.54022 
801 1 7.23 10.845 18.075 -3.54022 
802 1 9.0375 12.6525 18.075 -3.54022 
803 1 9.0375 10.845 19.8825 -3.54022 
804 1 7.23 12.6525 19.8825 -3.54022 
805 1 10.845 10.845 18.075 -3.54022 
806 1 12.6525 12.6525 18.075 -3.54022 
807 1 12.6525 10.845 19.8825 -3.54022 
808 1 10.845 12.6525 19.8825 -3.54022 
809 1 14.46 10.845 18.075 -3.54022 
810 1 16.2675 12.6525 18.075 -3.54022 
811 1 16.2675 10.845 19.8825 -3.54022 
812 1 14.46 12.6525 19.8825 -3.54022 
813 1 18.075 10.845 18.075 -3.54022 
814 1 19.8825 12.6525 18.075 -3.54022 
815 1 19.8825 10.845 19.8825 -3.54022 
816 1 18.075 12.6525 19.8825 -3.54022 
817 1 0 14.46 18.075 -3.54022 
818 1 1.8075 16.2675 18.075 -3.54022 
819 1 1.8075 14.46 19.8825 -3.54022 
820 1 0 16.2675 19.8825 -3.54022 
821 1 3.615 14.46 18.075 -3.54022 
822 1 5.4225 16.2675 18.075 -3.54022 
823 1 5.4225 14.46 19.8825 -3.54022 
824 1 3.615 16.2675 19.8825 -3.54022 
825 1 7.23 14.46 18.075 -3.54022 
826 1 9.0375 16.2675 18.075 -3.54022 
827 1 9.0375 14.46 19.8825 -3.54022 
828 1 7.23 16.2675 19.8825 -3.54022 
829 1 10.845 14.46 18.075 -3.54022 
830 1 12.6525 16.2675 18.075 -3.54022 
831 1 12.6525 14.46 19.8825 -3.54022 
832 1 10.845 16.2675 19.8825 -3.54022 
833 1 14.46 14.46 18.075 -3.54022 
834 1 16.2675 16.2675 18.075 -3.54022 
835 1 16.2675 14.46 19.8825 -3.54022 
836 1 14.46 16.2675 19.8825 -3.54022 
837 1 18.075 14.46 18.075 -3.54022 
838 1 19.8825 16.2675 18.075 -3.54022 
839 1 19.8825 14.46 19.8825 -3.54022 
840 1 18.075 16.2675 19.8825 -3.54022 
841 1 0 18.075 18.075 -3.54022 
842 1 1.8075 19.8825 18.075 -3.54022 