ITEM: TIMESTEP
17
ITEM: NUMBER OF ATOMS
863
ITEM: BOX BOUNDS pp pp pp
0.0000000000000000e+00 2.1690000000000001e+01
0.0000000000000000e+00 2.1690000000000001e+01
0.0000000000000000e+00 2.1690000000000001e+01
ITEM: ATOMS id type x y z c_pea 
1 1 0.000912404 0.00053216 -0.000733727 -3.5402 
2 1 1.8095 1.80821 -0.00177496 -3.5403 
3 1 1.80886 0.000803608 1.80614 -3.54023 
4 1 0.000893785 1.80779 1.80663 -3.54024 
5 1 3.61757 0.00189299 -0.00256669 -3.54026 
6 1 5.42578 1.80947 -0.00392241 -3.54047 
7 1 5.4238 0.00130206 1.80558 -3.54031 
8 1 3.61677 1.80821 1.8055 -3.5403 
9 1 7.23197 0.0032838 -0.00392241 -3.54047 
10 1 9.0375 1.80774 0.000488071 -3.53909 
11 1 9.0375 0.0006212 1.80711 -3.53977 
12 1 7.23017 1.80767 1.80759 -3.54 
13 1 10.843 0.0032838 -0.00392241 -3.54047 
14 1 10.8448 1.80767 1.80759 -3.54 
15 1 12.6492 1.80947 -0.00392241 -3.54047 
16 1 12.6512 0.00130206 1.80558 -3.54031 
17 1 14.4574 0.00189299 -0.00256669 -3.54026 
18 1 14.4582 1.80821 1.8055 -3.5403 
19 1 16.2655 1.80821 -0.00177496 -3.5403 
20 1 16.2661 0.000803608 1.80614 -3.54023 
21 1 18.0741 0.00053216 -0.000733727 -3.5402 
22 1 18.0741 1.80779 1.80663 -3.54024 
23 1 19.8825 1.80758 -0.000202204 -3.54009 
24 1 19.8825 0.000422034 1.80691 -3.54024 
25 1 0.000468006 3.615 -0.000443197 -3.54005 
26 1 1.8095 5.42179 -0.00177496 -3.5403 
27 1 1.80944 3.615 1.80556 -3.54048 
28 1 0.000893785 5.42221 1.80663 -3.54024 
29 1 3.61941 3.615 -0.00440785 -3.54096 
30 1 5.42578 5.42053 -0.00392241 -3.54047 
31 1 5.42312 3.615 1.80711 -3.53977 
32 1 3.61677 5.42179 1.8055 -3.5403 
33 1 7.23024 3.615 0.000488071 -3.53909 
34 1 9.0375 5.42226 0.000488071 -3.53909 
35 1 9.0375 3.615 1.80783 -3.54065 
36 1 7.23017 5.42233 1.80759 -3.54 
37 1 10.8448 3.615 0.000488071 -3.53909 
38 1 10.8448 5.42233 1.80759 -3.54 
39 1 12.6492 5.42053 -0.00392241 -3.54047 
40 1 12.6519 3.615 1.80711 -3.53977 
41 1 14.4556 3.615 -0.00440785 -3.54096 
42 1 14.4582 5.42179 1.8055 -3.5403 
43 1 16.2655 5.42179 -0.00177496 -3.5403 
44 1 16.2656 3.615 1.80556 -3.54048 
45 1 18.0745 3.615 -0.000443197 -3.54005 
46 1 18.0741 5.42221 1.80663 -3.54024 
47 1 19.8825 5.42242 -0.000202204 -3.54009 
48 1 19.8825 3.615 1.80708 -3.54012 
49 1 0.000912404 7.22947 -0.000733727 -3.5402 
50 1 1.80902 9.03623 -0.00126667 -3.54021 
51 1 1.80886 7.2292 1.80614 -3.54023 
52 1 0.000639221 9.03684 1.80677 -3.54023 
53 1 3.61757 7.22811 -0.00256669 -3.54026 
54 1 5.42439 9.03493 -0.00256669 -3.54026 
55 1 5.4238 7.2287 1.80558 -3.54031 
56 1 3.61627 9.03623 1.80598 -3.54021 
57 1 7.23197 7.22672 -0.00392241 -3.54047 
58 1 9.0375 9.03309 -0.00440785 -3.54096 
59 1 9.0375 7.22938 1.80711 -3.53977 
60 1 7.23071 9.03573 1.8055 -3.5403 
61 1 10.843 7.22672 -0.00392241 -3.54047 
62 1 10.8443 9.03573 1.8055 -3.5403 
63 1 12.6506 9.03493 -0.00256669 -3.54026 
64 1 12.6512 7.2287 1.80558 -3.54031 
65 1 14.4574 7.22811 -0.00256669 -3.54026 
66 1 14.4587 9.03623 1.80598 -3.54021 
67 1 16.266 9.03623 -0.00126667 -3.54021 
68 1 16.2661 7.2292 1.80614 -3.54023 
69 1 18.0741 7.22947 -0.000733727 -3.5402 
70 1 18.0744 9.03684 1.80677 -3.54023 
71 1 19.8825 9.03696 -0.000537848 -3.54022 
72 1 19.8825 7.22958 1.80691 -3.54024 
73 1 0.000639221 10.8443 -0.000664549 -3.54023 
74 1 1.80833 10.8442 1.80667 -3.54023 
75 1 3.61627 10.8435 -0.00126667 -3.54021 
76 1 5.4233 10.8436 1.80614 -3.54023 
77 1 7.23071 10.843 -0.00177496 -3.5403 
78 1 9.0375 10.8431 1.80556 -3.54048 
79 1 10.8443 10.843 -0.00177496 -3.5403 
80 1 12.6517 10.8436 1.80614 -3.54023 
81 1 14.4587 10.8435 -0.00126667 -3.54021 
82 1 16.2667 10.8442 1.80667 -3.54023 
83 1 18.0744 10.8443 -0.000664549 -3.54023 
84 1 19.8825 10.8445 1.80696 -3.54024 
85 1 1.80823 12.6519 -0.000664549 -3.54023 
86 1 0.000376672 12.6521 1.80698 -3.54024 
87 1 0.000382145 14.46 -0.000530561 -3.54025 
88 1 1.80804 14.46 1.80696 -3.54024 
89 1 5.42303 12.6516 -0.000733727 -3.5402 
90 1 3.61566 12.6519 1.80677 -3.54023 
91 1 3.61554 14.46 -0.000537848 -3.54022 
92 1 5.42292 14.46 1.80691 -3.54024 
93 1 9.0375 12.652 -0.000443197 -3.54005 
94 1 7.23029 12.6516 1.80663 -3.54024 
95 1 7.23008 14.46 -0.000202204 -3.54009 
96 1 9.0375 14.46 1.80708 -3.54012 
97 1 10.8447 12.6516 1.80663 -3.54024 
98 1 10.8449 14.46 -0.000202204 -3.54009 
99 1 12.652 12.6516 -0.000733727 -3.5402 
100 1 14.4593 12.6519 1.80677 -3.54023 
101 1 12.6521 14.46 1.80691 -3.54024 
102 1 14.4595 14.46 -0.000537848 -3.54022 
103 1 16.2668 12.6519 -0.000664549 -3.54023 
104 1 18.0746 12.6521 1.80698 -3.54024 
105 1 16.267 14.46 1.80696 -3.54024 
106 1 18.0746 14.46 -0.000530561 -3.54025 
107 1 19.8825 12.6521 -0.000530561 -3.54025 
108 1 19.8825 14.46 1.80704 -3.54025 
109 1 1.80823 16.2681 -0.000664549 -3.54023 
110 1 0.000376672 16.2679 1.80698 -3.54024 
111 1 0.000639221 18.0757 -0.000664549 -3.54023 
112 1 1.80833 18.0758 1.80667 -3.54023 
113 1 5.42303 16.2684 -0.000733727 -3.5402 
114 1 3.61566 16.2681 1.80677 -3.54023 
115 1 3.61627 18.0765 -0.00126667 -3.54021 
116 1 5.4233 18.0764 1.80614 -3.54023 
117 1 9.0375 16.268 -0.000443197 -3.54005 
118 1 7.23029 16.2684 1.80663 -3.54024 
119 1 7.23071 18.077 -0.00177496 -3.5403 
120 1 9.0375 18.0769 1.80556 -3.54048 
121 1 10.8447 16.2684 1.80663 -3.54024 
122 1 10.8443 18.077 -0.00177496 -3.5403 
123 1 12.652 16.2684 -0.000733727 -3.5402 
124 1 14.4593 16.2681 1.80677 -3.54023 
125 1 12.6517 18.0764 1.80614 -3.54023 
126 1 14.4587 18.0765 -0.00126667 -3.54021 
127 1 16.2668 16.2681 -0.000664549 -3.54023 
128 1 18.0746 16.2679 1.80698 -3.54024 
129 1 16.2667 18.0758 1.80667 -3.54023 
130 1 18.0744 18.0757 -0.000664549 -3.54023 
131 1 19.8825 16.2679 -0.000530561 -3.54025 
132 1 19.8825 18.0755 1.80696 -3.54024 
133 1 1.80902 19.8838 -0.00126667 -3.54021 
134 1 0.000639221 19.8832 1.80677 -3.54023 
135 1 5.42439 19.8851 -0.00256669 -3.54026 
136 1 3.61627 19.8838 1.80598 -3.54021 
137 1 9.0375 19.8869 -0.00440785 -3.54096 
138 1 7.23071 19.8843 1.8055 -3.5403 
139 1 10.8443 19.8843 1.8055 -3.5403 
140 1 12.6506 19.8851 -0.00256669 -3.54026 
141 1 14.4587 19.8838 1.80598 -3.54021 
142 1 16.266 19.8838 -0.00126667 -3.54021 
143 1 18.0744 19.8832 1.80677 -3.54023 
144 1 19.8825 19.883 -0.000537848 -3.54022 
145 1 0.00054031 0.000470609 3.61446 -3.54026 
146 1 1.80837 1.80779 3.61411 -3.54024 
147 1 1.80809 0.000422034 5.4225 -3.54024 
148 1 0.000462858 1.80775 5.4225 -3.5403 
149 1 3.61573 0.00053216 3.61409 -3.5402 
150 1 5.42265 1.80757 3.61487 -3.54007 
151 1 5.4226 9.55334e-05 5.4225 -3.54008 
152 1 3.6152 1.80758 5.4225 -3.54009 
153 1 7.23007 0.000154185 3.61487 -3.54007 
154 1 9.0375 1.80751 3.61517 -3.54026 
155 1 9.0375 -1.09313e-05 5.4225 -3.5402 
156 1 7.22997 1.80747 5.4225 -3.54022 
157 1 10.8449 0.000154185 3.61487 -3.54007 
158 1 10.845 1.80747 5.4225 -3.54022 
159 1 12.6523 1.80757 3.61487 -3.54007 
160 1 12.6524 9.55334e-05 5.4225 -3.54008 
161 1 14.4593 0.00053216 3.61409 -3.5402 
162 1 14.4598 1.80758 5.4225 -3.54009 
163 1 16.2666 1.80779 3.61411 -3.54024 
164 1 16.2669 0.000422034 5.4225 -3.54024 
165 1 18.0745 0.000470609 3.61446 -3.54026 
166 1 18.0745 1.80775 5.4225 -3.5403 
167 1 19.8825 1.80775 3.61454 -3.5403 
168 1 19.8825 0.000434257 5.4225 -3.54028 
169 1 0.000724887 3.615 3.61428 -3.54031 
170 1 1.80837 5.42221 3.61411 -3.54024 
171 1 1.80792 3.615 5.4225 -3.54012 
172 1 0.000462858 5.42225 5.4225 -3.5403 
173 1 3.61544 3.615 3.61453 -3.54005 
174 1 5.42265 5.42243 3.61487 -3.54007 
175 1 5.42249 3.615 5.4225 -3.5402 
176 1 3.6152 5.42242 5.4225 -3.54009 
177 1 7.23001 3.615 3.61517 -3.54026 
178 1 9.0375 5.42249 3.61517 -3.54026 
179 1 9.0375 3.615 5.4225 -3.54022 
180 1 7.22997 5.42253 5.4225 -3.54022 
181 1 10.845 3.615 3.61517 -3.54026 
182 1 10.845 5.42253 5.4225 -3.54022 
183 1 12.6523 5.42243 3.61487 -3.54007 
184 1 12.6525 3.615 5.4225 -3.5402 
185 1 14.4596 3.615 3.61453 -3.54005 
186 1 14.4598 5.42242 5.4225 -3.54009 
187 1 16.2666 5.42221 3.61411 -3.54024 
188 1 16.2671 3.615 5.4225 -3.54012 
189 1 18.0743 3.615 3.61428 -3.54031 
190 1 18.0745 5.42225 5.4225 -3.5403 
191 1 19.8825 5.42225 3.61454 -3.5403 
192 1 19.8825 3.615 5.4225 -3.54039 
193 1 0.00054031 7.22953 3.61446 -3.54026 
194 1 1.80823 9.03684 3.61436 -3.54023 
195 1 1.80809 7.22958 5.4225 -3.54024 
196 1 0.000382145 9.03697 5.4225 -3.54025 
197 1 3.61573 7.22947 3.61409 -3.5402 
198 1 5.42303 9.03677 3.61409 -3.5402 
199 1 5.4226 7.2299 5.4225 -3.54008 
200 1 3.61554 9.03696 5.4225 -3.54022 
201 1 7.23007 7.22985 3.61487 -3.54007 
202 1 9.0375 9.03706 3.61453 -3.54005 
203 1 9.0375 7.23001 5.4225 -3.5402 
204 1 7.23008 9.0373 5.4225 -3.54009 
205 1 10.8449 7.22985 3.61487 -3.54007 
206 1 10.8449 9.0373 5.4225 -3.54009 
207 1 12.652 9.03677 3.61409 -3.5402 
208 1 12.6524 7.2299 5.4225 -3.54008 
209 1 14.4593 7.22947 3.61409 -3.5402 
210 1 14.4595 9.03696 5.4225 -3.54022 
211 1 16.2668 9.03684 3.61436 -3.54023 
212 1 16.2669 7.22958 5.4225 -3.54024 
213 1 18.0745 7.22953 3.61446 -3.54026 
214 1 18.0746 9.03697 5.4225 -3.54025 
215 1 19.8825 9.03697 3.61462 -3.54025 
216 1 19.8825 7.22957 5.4225 -3.54028 
217 1 0.000376672 10.8445 3.61462 -3.54024 
218 1 1.80804 10.8445 5.4225 -3.54024 
219 1 3.61566 10.8443 3.61436 -3.54023 
220 1 5.42292 10.8444 5.4225 -3.54024 
221 1 7.23029 10.8441 3.61411 -3.54024 
222 1 9.0375 10.8446 5.4225 -3.54012 
223 1 10.8447 10.8441 3.61411 -3.54024 
224 1 12.6521 10.8444 5.4225 -3.54024 
225 1 14.4593 10.8443 3.61436 -3.54023 
226 1 16.267 10.8445 5.4225 -3.54024 
227 1 18.0746 10.8445 3.61462 -3.54024 
228 1 19.8825 10.8445 5.4225 -3.54025 
229 1 1.80802 12.6521 3.61462 -3.54024 
230 1 0.000289511 12.6522 5.4225 -3.54024 
231 1 0.000289511 14.46 3.61471 -3.54024 
232 1 1.80796 14.46 5.4225 -3.54025 
233 1 5.42297 12.652 3.61446 -3.54026 
234 1 3.61553 12.6521 5.4225 -3.54025 
235 1 3.61553 14.46 3.61462 -3.54025 
236 1 5.42293 14.46 5.4225 -3.54028 
237 1 9.0375 12.6518 3.61428 -3.54031 
238 1 7.23025 12.652 5.4225 -3.5403 
239 1 7.23025 14.46 3.61454 -3.5403 
240 1 9.0375 14.46 5.4225 -3.54039 
241 1 10.8447 12.652 5.4225 -3.5403 
242 1 10.8447 14.46 3.61454 -3.5403 
243 1 12.652 12.652 3.61446 -3.54026 
244 1 14.4595 12.6521 5.4225 -3.54025 
245 1 12.6521 14.46 5.4225 -3.54028 
246 1 14.4595 14.46 3.61462 -3.54025 
247 1 16.267 12.6521 3.61462 -3.54024 
248 1 18.0747 12.6522 5.4225 -3.54024 
249 1 16.267 14.46 5.4225 -3.54025 
250 1 18.0747 14.46 3.61471 -3.54024 
251 1 19.8825 12.6522 3.61471 -3.54024 
252 1 19.8825 14.46 5.4225 -3.54024 
253 1 1.80802 16.2679 3.61462 -3.54024 
254 1 0.000289511 16.2678 5.4225 -3.54024 
255 1 0.000376672 18.0755 3.61462 -3.54024 
256 1 1.80804 18.0755 5.4225 -3.54024 
257 1 5.42297 16.268 3.61446 -3.54026 
258 1 3.61553 16.2679 5.4225 -3.54025 
259 1 3.61566 18.0757 3.61436 -3.54023 
260 1 5.42292 18.0756 5.4225 -3.54024 
261 1 9.0375 16.2682 3.61428 -3.54031 
262 1 7.23025 16.268 5.4225 -3.5403 
263 1 7.23029 18.0759 3.61411 -3.54024 
264 1 9.0375 18.0754 5.4225 -3.54012 
265 1 10.8447 16.268 5.4225 -3.5403 
266 1 10.8447 18.0759 3.61411 -3.54024 
267 1 12.652 16.268 3.61446 -3.54026 
268 1 14.4595 16.2679 5.4225 -3.54025 
269 1 12.6521 18.0756 5.4225 -3.54024 
270 1 14.4593 18.0757 3.61436 -3.54023 
271 1 16.267 16.2679 3.61462 -3.54024 
272 1 18.0747 16.2678 5.4225 -3.54024 
273 1 16.267 18.0755 5.4225 -3.54024 
274 1 18.0746 18.0755 3.61462 -3.54024 
275 1 19.8825 16.2678 3.61471 -3.54024 
276 1 19.8825 18.0755 5.4225 -3.54025 
277 1 1.80823 19.8832 3.61436 -3.54023 
278 1 0.000382145 19.883 5.4225 -3.54025 
279 1 5.42303 19.8832 3.61409 -3.5402 
280 1 3.61554 19.883 5.4225 -3.54022 
281 1 9.0375 19.8829 3.61453 -3.54005 
282 1 7.23008 19.8827 5.4225 -3.54009 
283 1 10.8449 19.8827 5.4225 -3.54009 
284 1 12.652 19.8832 3.61409 -3.5402 
285 1 14.4595 19.883 5.4225 -3.54022 
286 1 16.2668 19.8832 3.61436 -3.54023 
287 1 18.0746 19.883 5.4225 -3.54025 
288 1 19.8825 19.883 3.61462 -3.54025 
289 1 0.00054031 0.000470609 7.23054 -3.54026 
290 1 1.80837 1.80779 7.23089 -3.54024 
291 1 1.80886 0.000803608 9.03886 -3.54023 
292 1 0.000893785 1.80779 9.03837 -3.54024 
293 1 3.61573 0.00053216 7.23091 -3.5402 
294 1 5.42265 1.80757 7.23013 -3.54007 
295 1 5.4238 0.00130206 9.03942 -3.54031 
296 1 3.61677 1.80821 9.0395 -3.5403 
297 1 7.23007 0.000154185 7.23013 -3.54007 
298 1 9.0375 1.80751 7.22983 -3.54026 
299 1 9.0375 0.0006212 9.03789 -3.53977 
300 1 7.23017 1.80767 9.03741 -3.54 
301 1 10.8449 0.000154185 7.23013 -3.54007 
302 1 10.8448 1.80767 9.03741 -3.54 
303 1 12.6523 1.80757 7.23013 -3.54007 
304 1 12.6512 0.00130206 9.03942 -3.54031 
305 1 14.4593 0.00053216 7.23091 -3.5402 
306 1 14.4582 1.80821 9.0395 -3.5403 
307 1 16.2666 1.80779 7.23089 -3.54024 
308 1 16.2661 0.000803608 9.03886 -3.54023 
309 1 18.0745 0.000470609 7.23054 -3.54026 
310 1 18.0741 1.80779 9.03837 -3.54024 
311 1 19.8825 1.80775 7.23046 -3.5403 
312 1 19.8825 0.000422034 9.03809 -3.54024 
313 1 0.000724887 3.615 7.23072 -3.54031 
314 1 1.80837 5.42221 7.23089 -3.54024 
315 1 1.80944 3.615 9.03944 -3.54048 
316 1 0.000893785 5.42221 9.03837 -3.54024 
317 1 3.61544 3.615 7.23047 -3.54005 
318 1 5.42265 5.42243 7.23013 -3.54007 
319 1 5.42312 3.615 9.03789 -3.53977 
320 1 3.61677 5.42179 9.0395 -3.5403 
321 1 7.23001 3.615 7.22983 -3.54026 
322 1 9.0375 5.42249 7.22983 -3.54026 
323 1 9.0375 3.615 9.03717 -3.54065 
324 1 7.23017 5.42233 9.03741 -3.54 
325 1 10.845 3.615 7.22983 -3.54026 
326 1 10.8448 5.42233 9.03741 -3.54 
327 1 12.6523 5.42243 7.23013 -3.54007 
328 1 12.6519 3.615 9.03789 -3.53977 
329 1 14.4596 3.615 7.23047 -3.54005 
330 1 14.4582 5.42179 9.0395 -3.5403 
331 1 16.2666 5.42221 7.23089 -3.54024 
332 1 16.2656 3.615 9.03944 -3.54048 
333 1 18.0743 3.615 7.23072 -3.54031 
334 1 18.0741 5.42221 9.03837 -3.54024 
335 1 19.8825 5.42225 7.23046 -3.5403 
336 1 19.8825 3.615 9.03792 -3.54012 
337 1 0.00054031 7.22953 7.23054 -3.54026 
338 1 1.80823 9.03684 7.23064 -3.54023 
339 1 1.80886 7.2292 9.03886 -3.54023 
340 1 0.000639221 9.03684 9.03823 -3.54023 
341 1 3.61573 7.22947 7.23091 -3.5402 
342 1 5.42303 9.03677 7.23091 -3.5402 
343 1 5.4238 7.2287 9.03942 -3.54031 
344 1 3.61627 9.03623 9.03902 -3.54021 
345 1 7.23007 7.22985 7.23013 -3.54007 
346 1 9.0375 9.03706 7.23047 -3.54005 
347 1 9.0375 7.22938 9.03789 -3.53977 
348 1 7.23071 9.03573 9.0395 -3.5403 
349 1 10.8449 7.22985 7.23013 -3.54007 
350 1 10.8443 9.03573 9.0395 -3.5403 
351 1 12.652 9.03677 7.23091 -3.5402 
352 1 12.6512 7.2287 9.03942 -3.54031 
353 1 14.4593 7.22947 7.23091 -3.5402 
354 1 14.4587 9.03623 9.03902 -3.54021 
355 1 16.2668 9.03684 7.23064 -3.54023 
356 1 16.2661 7.2292 9.03886 -3.54023 
357 1 18.0745 7.22953 7.23054 -3.54026 
358 1 18.0744 9.03684 9.03823 -3.54023 
359 1 19.8825 9.03697 7.23038 -3.54025 
360 1 19.8825 7.22958 9.03809 -3.54024 
361 1 0.000376672 10.8445 7.23038 -3.54024 
362 1 1.80833 10.8442 9.03833 -3.54023 
363 1 3.61566 10.8443 7.23064 -3.54023 
364 1 5.4233 10.8436 9.03886 -3.54023 
365 1 7.23029 10.8441 7.23089 -3.54024 
366 1 9.0375 10.8431 9.03944 -3.54048 
367 1 10.8447 10.8441 7.23089 -3.54024 
368 1 12.6517 10.8436 9.03886 -3.54023 
369 1 14.4593 10.8443 7.23064 -3.54023 
370 1 16.2667 10.8442 9.03833 -3.54023 
371 1 18.0746 10.8445 7.23038 -3.54024 
372 1 19.8825 10.8445 9.03804 -3.54024 
373 1 1.80802 12.6521 7.23038 -3.54024 
374 1 0.000376672 12.6521 9.03802 -3.54024 
375 1 0.000289511 14.46 7.23029 -3.54024 
376 1 1.80804 14.46 9.03804 -3.54024 
377 1 5.42297 12.652 7.23054 -3.54026 
378 1 3.61566 12.6519 9.03823 -3.54023 
379 1 3.61553 14.46 7.23038 -3.54025 
380 1 5.42292 14.46 9.03809 -3.54024 
381 1 9.0375 12.6518 7.23072 -3.54031 
382 1 7.23029 12.6516 9.03837 -3.54024 
383 1 7.23025 14.46 7.23046 -3.5403 
384 1 9.0375 14.46 9.03792 -3.54012 
385 1 10.8447 12.6516 9.03837 -3.54024 
386 1 10.8447 14.46 7.23046 -3.5403 
387 1 12.652 12.652 7.23054 -3.54026 
388 1 14.4593 12.6519 9.03823 -3.54023 
389 1 12.6521 14.46 9.03809 -3.54024 
390 1 14.4595 14.46 7.23038 -3.54025 
391 1 16.267 12.6521 7.23038 -3.54024 
392 1 18.0746 12.6521 9.03802 -3.54024 
393 1 16.267 14.46 9.03804 -3.54024 
394 1 18.0747 14.46 7.23029 -3.54024 
395 1 19.8825 12.6522 7.23029 -3.54024 
396 1 19.8825 14.46 9.03796 -3.54025 
397 1 1.80802 16.2679 7.23038 -3.54024 
398 1 0.000376672 16.2679 9.03802 -3.54024 
399 1 0.000376672 18.0755 7.23038 -3.54024 
400 1 1.80833 18.0758 9.03833 -3.54023 
401 1 5.42297 16.268 7.23054 -3.54026 
402 1 3.61566 16.2681 9.03823 -3.54023 
403 1 3.61566 18.0757 7.23064 -3.54023 
404 1 5.4233 18.0764 9.03886 -3.54023 
405 1 9.0375 16.2682 7.23072 -3.54031 
406 1 7.23029 16.2684 9.03837 -3.54024 
407 1 7.23029 18.0759 7.23089 -3.54024 
408 1 9.0375 18.0769 9.03944 -3.54048 
409 1 10.8447 16.2684 9.03837 -3.54024 
410 1 10.8447 18.0759 7.23089 -3.54024 
411 1 12.652 16.268 7.23054 -3.54026 
412 1 14.4593 16.2681 9.03823 -3.54023 
413 1 12.6517 18.0764 9.03886 -3.54023 
414 1 14.4593 18.0757 7.23064 -3.54023 
415 1 16.267 16.2679 7.23038 -3.54024 
416 1 18.0746 16.2679 9.03802 -3.54024 
417 1 16.2667 18.0758 9.03833 -3.54023 
418 1 18.0746 18.0755 7.23038 -3.54024 
419 1 19.8825 16.2678 7.23029 -3.54024 
420 1 19.8825 18.0755 9.03804 -3.54024 
421 1 1.80823 19.8832 7.23064 -3.54023 
422 1 0.000639221 19.8832 9.03823 -3.54023 
423 1 5.42303 19.8832 7.23091 -3.5402 
424 1 3.61627 19.8838 9.03902 -3.54021 
425 1 9.0375 19.8829 7.23047 -3.54005 
426 1 7.23071 19.8843 9.0395 -3.5403 
427 1 10.8443 19.8843 9.0395 -3.5403 
428 1 12.652 19.8832 7.23091 -3.5402 
429 1 14.4587 19.8838 9.03902 -3.54021 
430 1 16.2668 19.8832 7.23064 -3.54023 
431 1 18.0744 19.8832 9.03823 -3.54023 
432 1 19.8825 19.883 7.23038 -3.54025 
433 1 0.000912404 0.00053216 10.8457 -3.5402 
434 1 1.8095 1.80821 10.8468 -3.5403 
435 1 3.61757 0.00189299 10.8476 -3.54026 
436 1 5.42578 1.80947 10.8489 -3.54047 
437 1 7.23197 0.0032838 10.8489 -3.54047 
438 1 9.0375 1.80774 10.8445 -3.53909 
439 1 10.843 0.0032838 10.8489 -3.54047 
440 1 12.6492 1.80947 10.8489 -3.54047 
441 1 14.4574 0.00189299 10.8476 -3.54026 
442 1 16.2655 1.80821 10.8468 -3.5403 
443 1 18.0741 0.00053216 10.8457 -3.5402 
444 1 19.8825 1.80758 10.8452 -3.54009 
445 1 0.000468006 3.615 10.8454 -3.54005 
446 1 1.8095 5.42179 10.8468 -3.5403 
447 1 3.61941 3.615 10.8494 -3.54096 
448 1 5.42578 5.42053 10.8489 -3.54047 
449 1 7.23024 3.615 10.8445 -3.53909 
450 1 9.0375 5.42226 10.8445 -3.53909 
451 1 10.8448 3.615 10.8445 -3.53909 
452 1 12.6492 5.42053 10.8489 -3.54047 
453 1 14.4556 3.615 10.8494 -3.54096 
454 1 16.2655 5.42179 10.8468 -3.5403 
455 1 18.0745 3.615 10.8454 -3.54005 
456 1 19.8825 5.42242 10.8452 -3.54009 
457 1 0.000912404 7.22947 10.8457 -3.5402 
458 1 1.80902 9.03623 10.8463 -3.54021 
459 1 3.61757 7.22811 10.8476 -3.54026 
460 1 5.42439 9.03493 10.8476 -3.54026 
461 1 7.23197 7.22672 10.8489 -3.54047 
462 1 9.0375 9.03309 10.8494 -3.54096 
463 1 10.843 7.22672 10.8489 -3.54047 
464 1 12.6506 9.03493 10.8476 -3.54026 
465 1 14.4574 7.22811 10.8476 -3.54026 
466 1 16.266 9.03623 10.8463 -3.54021 
467 1 18.0741 7.22947 10.8457 -3.5402 
468 1 19.8825 9.03696 10.8455 -3.54022 
469 1 0.000639221 10.8443 10.8457 -3.54023 
470 1 3.61627 10.8435 10.8463 -3.54021 
471 1 7.23071 10.843 10.8468 -3.5403 
472 1 10.8443 10.843 10.8468 -3.5403 
473 1 14.4587 10.8435 10.8463 -3.54021 
474 1 18.0744 10.8443 10.8457 -3.54023 
475 1 1.80823 12.6519 10.8457 -3.54023 
476 1 0.000382145 14.46 10.8455 -3.54025 
477 1 5.42303 12.6516 10.8457 -3.5402 
478 1 3.61554 14.46 10.8455 -3.54022 
479 1 9.0375 12.652 10.8454 -3.54005 
480 1 7.23008 14.46 10.8452 -3.54009 
481 1 10.8449 14.46 10.8452 -3.54009 
482 1 12.652 12.6516 10.8457 -3.5402 
483 1 14.4595 14.46 10.8455 -3.54022 
484 1 16.2668 12.6519 10.8457 -3.54023 
485 1 18.0746 14.46 10.8455 -3.54025 
486 1 19.8825 12.6521 10.8455 -3.54025 
487 1 1.80823 16.2681 10.8457 -3.54023 
488 1 0.000639221 18.0757 10.8457 -3.54023 
489 1 5.42303 16.2684 10.8457 -3.5402 
490 1 3.61627 18.0765 10.8463 -3.54021 
491 1 9.0375 16.268 10.8454 -3.54005 
492 1 7.23071 18.077 10.8468 -3.5403 
493 1 10.8443 18.077 10.8468 -3.5403 
494 1 12.652 16.2684 10.8457 -3.5402 
495 1 14.4587 18.0765 10.8463 -3.54021 
496 1 16.2668 16.2681 10.8457 -3.54023 
497 1 18.0744 18.0757 10.8457 -3.54023 
498 1 19.8825 16.2679 10.8455 -3.54025 
499 1 1.80902 19.8838 10.8463 -3.54021 
500 1 5.42439 19.8851 10.8476 -3.54026 
501 1 9.0375 19.8869 10.8494 -3.54096 
502 1 12.6506 19.8851 10.8476 -3.54026 
503 1 16.266 19.8838 10.8463 -3.54021 
504 1 19.8825 19.883 10.8455 -3.54022 
505 1 1.80942 0.00130206 12.6538 -3.54031 
506 1 0.000134557 1.80757 12.6527 -3.54007 
507 1 0.000134557 0.000154185 14.4601 -3.54007 
508 1 1.80741 1.80767 14.4602 -3.54 
509 1 5.42683 0.00432958 12.6568 -3.54042 
510 1 3.61892 1.80947 12.6558 -3.54047 
511 1 3.61892 0.0032838 14.462 -3.54047 
512 1 5.42995 1.81303 14.4655 -3.53811 
513 1 9.0375 0.0106815 12.6632 -3.54197 
514 1 7.23553 1.81303 12.6599 -3.53811 
515 1 7.23553 0.00744987 14.4655 -3.53811 
516 1 9.0375 1.83002 14.4825 -3.44947 
517 1 10.8395 1.81303 12.6599 -3.53811 
518 1 10.8395 0.00744987 14.4655 -3.53811 
519 1 12.6482 0.00432958 12.6568 -3.54042 
520 1 14.4561 1.80947 12.6558 -3.54047 
521 1 12.6451 1.81303 14.4655 -3.53811 
522 1 14.4561 0.0032838 14.462 -3.54047 
523 1 16.2656 0.00130206 12.6538 -3.54031 
524 1 18.0749 1.80757 12.6527 -3.54007 
525 1 16.2676 1.80767 14.4602 -3.54 
526 1 18.0749 0.000154185 14.4601 -3.54007 
527 1 19.8825 9.55334e-05 12.6526 -3.54008 
528 1 19.8825 1.80747 14.46 -3.54022 
529 1 1.80789 3.615 12.6531 -3.53977 
530 1 0.000134557 5.42243 12.6527 -3.54007 
531 1 -0.000166629 3.615 14.46 -3.54026 
532 1 1.80741 5.42233 14.4602 -3.54 
533 1 5.43318 3.615 12.6632 -3.54197 
534 1 3.61892 5.42053 12.6558 -3.54047 
535 1 3.61451 3.615 14.4602 -3.53909 
536 1 5.42995 5.41697 14.4655 -3.53811 
537 1 9.0375 3.615 12.6444 -3.51708 
538 1 7.23553 5.41697 12.6599 -3.53811 
539 1 7.25252 3.615 14.4825 -3.44947 
540 1 9.0375 5.39998 14.4825 -3.44947 
541 1 10.8395 5.41697 12.6599 -3.53811 
542 1 10.8225 3.615 14.4825 -3.44947 
543 1 12.6418 3.615 12.6632 -3.54197 
544 1 14.4561 5.42053 12.6558 -3.54047 
545 1 12.6451 5.41697 14.4655 -3.53811 
546 1 14.4605 3.615 14.4602 -3.53909 
547 1 16.2671 3.615 12.6531 -3.53977 
548 1 18.0749 5.42243 12.6527 -3.54007 
549 1 16.2676 5.42233 14.4602 -3.54 
550 1 18.0752 3.615 14.46 -3.54026 
551 1 19.8825 3.615 12.6525 -3.5402 
552 1 19.8825 5.42253 14.46 -3.54022 
553 1 1.80942 7.2287 12.6538 -3.54031 
554 1 0.000912404 9.03677 12.653 -3.5402 
555 1 0.000134557 7.22985 14.4601 -3.54007 
556 1 1.8095 9.03573 14.4607 -3.5403 
557 1 5.42683 7.22567 12.6568 -3.54042 
558 1 3.61757 9.03493 12.6544 -3.54026 
559 1 3.61892 7.22672 14.462 -3.54047 
560 1 5.42578 9.03358 14.462 -3.54047 
561 1 9.0375 7.21932 12.6632 -3.54197 
562 1 7.23197 9.03358 12.6558 -3.54047 
563 1 7.23553 7.22255 14.4655 -3.53811 
564 1 9.0375 9.03799 14.4602 -3.53909 
565 1 10.843 9.03358 12.6558 -3.54047 
566 1 10.8395 7.22255 14.4655 -3.53811 
567 1 12.6482 7.22567 12.6568 -3.54042 
568 1 14.4574 9.03493 12.6544 -3.54026 
569 1 12.6492 9.03358 14.462 -3.54047 
570 1 14.4561 7.22672 14.462 -3.54047 
571 1 16.2656 7.2287 12.6538 -3.54031 
572 1 18.0741 9.03677 12.653 -3.5402 
573 1 16.2655 9.03573 14.4607 -3.5403 
574 1 18.0749 7.22985 14.4601 -3.54007 
575 1 19.8825 7.2299 12.6526 -3.54008 
576 1 19.8825 9.0373 14.4601 -3.54009 
577 1 1.80886 10.8436 12.6533 -3.54023 
578 1 0.000893785 10.8441 14.4603 -3.54024 
579 1 5.4238 10.8431 12.6538 -3.54031 
580 1 3.61677 10.843 14.4607 -3.5403 
581 1 9.0375 10.8446 12.6531 -3.53977 
582 1 7.23017 10.8451 14.4602 -3.54 
583 1 10.8448 10.8451 14.4602 -3.54 
584 1 12.6512 10.8431 12.6538 -3.54031 
585 1 14.4582 10.843 14.4607 -3.5403 
586 1 16.2661 10.8436 12.6533 -3.54023 
587 1 18.0741 10.8441 14.4603 -3.54024 
588 1 19.8825 10.8444 12.6529 -3.54024 
589 1 0.00054031 12.652 12.653 -3.54026 
590 1 1.80809 14.46 12.6529 -3.54024 
591 1 1.80837 12.6516 14.4603 -3.54024 
592 1 0.000462858 14.46 14.4603 -3.5403 
593 1 3.61573 12.6516 12.653 -3.5402 
594 1 5.4226 14.46 12.6526 -3.54008 
595 1 5.42265 12.6524 14.4601 -3.54007 
596 1 3.6152 14.46 14.4601 -3.54009 
597 1 7.23007 12.6524 12.6527 -3.54007 
598 1 9.0375 14.46 12.6525 -3.5402 
599 1 9.0375 12.6527 14.46 -3.54026 
600 1 7.22997 14.46 14.46 -3.54022 
601 1 10.8449 12.6524 12.6527 -3.54007 
602 1 10.845 14.46 14.46 -3.54022 
603 1 14.4593 12.6516 12.653 -3.5402 
604 1 12.6524 14.46 12.6526 -3.54008 
605 1 12.6523 12.6524 14.4601 -3.54007 
606 1 14.4598 14.46 14.4601 -3.54009 
607 1 18.0745 12.652 12.653 -3.54026 
608 1 16.2669 14.46 12.6529 -3.54024 
609 1 16.2666 12.6516 14.4603 -3.54024 
610 1 18.0745 14.46 14.4603 -3.5403 
611 1 19.8825 14.46 12.6529 -3.54028 
612 1 19.8825 12.652 14.4603 -3.5403 
613 1 0.00054031 16.268 12.653 -3.54026 
614 1 1.80886 18.0764 12.6533 -3.54023 
615 1 1.80837 16.2684 14.4603 -3.54024 
616 1 0.000893785 18.0759 14.4603 -3.54024 
617 1 3.61573 16.2684 12.653 -3.5402 
618 1 5.4238 18.0769 12.6538 -3.54031 
619 1 5.42265 16.2676 14.4601 -3.54007 
620 1 3.61677 18.077 14.4607 -3.5403 
621 1 7.23007 16.2676 12.6527 -3.54007 
622 1 9.0375 18.0754 12.6531 -3.53977 
623 1 9.0375 16.2673 14.46 -3.54026 
624 1 7.23017 18.0749 14.4602 -3.54 
625 1 10.8449 16.2676 12.6527 -3.54007 
626 1 10.8448 18.0749 14.4602 -3.54 
627 1 14.4593 16.2684 12.653 -3.5402 
628 1 12.6512 18.0769 12.6538 -3.54031 
629 1 12.6523 16.2676 14.4601 -3.54007 
630 1 14.4582 18.077 14.4607 -3.5403 
631 1 18.0745 16.268 12.653 -3.54026 
632 1 16.2661 18.0764 12.6533 -3.54023 
633 1 16.2666 16.2684 14.4603 -3.54024 
634 1 18.0741 18.0759 14.4603 -3.54024 
635 1 19.8825 18.0756 12.6529 -3.54024 
636 1 19.8825 16.268 14.4603 -3.5403 
637 1 0.000912404 19.8832 12.653 -3.5402 
638 1 1.8095 19.8843 14.4607 -3.5403 
639 1 3.61757 19.8851 12.6544 -3.54026 
640 1 5.42578 19.8864 14.462 -3.54047 
641 1 7.23197 19.8864 12.6558 -3.54047 
642 1 9.0375 19.882 14.4602 -3.53909 
643 1 10.843 19.8864 12.6558 -3.54047 
644 1 14.4574 19.8851 12.6544 -3.54026 
645 1 12.6492 19.8864 14.462 -3.54047 
646 1 18.0741 19.8832 12.653 -3.5402 
647 1 16.2655 19.8843 14.4607 -3.5403 
648 1 19.8825 19.8827 14.4601 -3.54009 
649 1 1.80789 0.0006212 16.2675 -3.53977 
650 1 -0.000166629 1.80751 16.2675 -3.54026 
651 1 0.000134557 0.000154185 18.0749 -3.54007 
652 1 1.80741 1.80767 18.0748 -3.54 
653 1 5.43318 0.0106815 16.2675 -3.54197 
654 1 3.61451 1.80774 16.2675 -3.53909 
655 1 3.61892 0.0032838 18.073 -3.54047 
656 1 5.42995 1.81303 18.0695 -3.53811 
657 1 9.0375 -0.00811045 16.2675 -3.51708 
658 1 7.25252 1.83002 16.2675 -3.44947 
659 1 7.23553 0.00744987 18.0695 -3.53811 
660 1 9.0375 1.83002 18.0525 -3.44947 
661 1 10.8225 1.83002 16.2675 -3.44947 
662 1 10.8395 0.00744987 18.0695 -3.53811 
663 1 12.6418 0.0106815 16.2675 -3.54197 
664 1 14.4605 1.80774 16.2675 -3.53909 
665 1 12.6451 1.81303 18.0695 -3.53811 
666 1 14.4561 0.0032838 18.073 -3.54047 
667 1 16.2671 0.0006212 16.2675 -3.53977 
668 1 18.0752 1.80751 16.2675 -3.54026 
669 1 16.2676 1.80767 18.0748 -3.54 
670 1 18.0749 0.000154185 18.0749 -3.54007 
671 1 19.8825 -1.09313e-05 16.2675 -3.5402 
672 1 19.8825 1.80747 18.075 -3.54022 
673 1 1.80717 3.615 16.2675 -3.54065 
674 1 -0.000166629 5.42249 16.2675 -3.54026 
675 1 -0.000166629 3.615 18.075 -3.54026 
676 1 1.80741 5.42233 18.0748 -3.54 
677 1 5.41439 3.615 16.2675 -3.51708 
678 1 3.61451 5.42226 16.2675 -3.53909 
679 1 3.61451 3.615 18.0748 -3.53909 
680 1 5.42995 5.41697 18.0695 -3.53811 
681 1 18.0741 19.8832 19.882 -3.5402 
682 1 7.25252 5.39998 16.2675 -3.44947 
683 1 7.25252 3.615 18.0525 -3.44947 
684 1 9.0375 5.39998 18.0525 -3.44947 
685 1 10.8225 5.39998 16.2675 -3.44947 
686 1 10.8225 3.615 18.0525 -3.44947 
687 1 12.6606 3.615 16.2675 -3.51708 
688 1 14.4605 5.42226 16.2675 -3.53909 
689 1 12.6451 5.41697 18.0695 -3.53811 
690 1 14.4605 3.615 18.0748 -3.53909 
691 1 16.2678 3.615 16.2675 -3.54065 
692 1 18.0752 5.42249 16.2675 -3.54026 
693 1 16.2676 5.42233 18.0748 -3.54 
694 1 18.0752 3.615 18.075 -3.54026 
695 1 19.8825 3.615 16.2675 -3.54022 
696 1 19.8825 5.42253 18.075 -3.54022 
697 1 1.80789 7.22938 16.2675 -3.53977 
698 1 0.000468006 9.03706 16.2675 -3.54005 
699 1 0.000134557 7.22985 18.0749 -3.54007 
700 1 1.8095 9.03573 18.0743 -3.5403 
701 1 5.43318 7.21932 16.2675 -3.54197 
702 1 3.61941 9.03309 16.2675 -3.54096 
703 1 3.61892 7.22672 18.073 -3.54047 
704 1 5.42578 9.03358 18.073 -3.54047 
705 1 9.0375 7.23811 16.2675 -3.51708 
706 1 7.23024 9.03799 16.2675 -3.53909 
707 1 7.23553 7.22255 18.0695 -3.53811 
708 1 9.0375 9.03799 18.0748 -3.53909 
709 1 10.8448 9.03799 16.2675 -3.53909 
710 1 10.8395 7.22255 18.0695 -3.53811 
711 1 12.6418 7.21932 16.2675 -3.54197 
712 1 14.4556 9.03309 16.2675 -3.54096 
713 1 12.6492 9.03358 18.073 -3.54047 
714 1 14.4561 7.22672 18.073 -3.54047 
715 1 16.2671 7.22938 16.2675 -3.53977 
716 1 18.0745 9.03706 16.2675 -3.54005 
717 1 16.2655 9.03573 18.0743 -3.5403 
718 1 18.0749 7.22985 18.0749 -3.54007 
719 1 19.8825 7.23001 16.2675 -3.5402 
720 1 19.8825 9.0373 18.0749 -3.54009 
721 1 1.80944 10.8431 16.2675 -3.54048 
722 1 0.000893785 10.8441 18.0747 -3.54024 
723 1 5.42312 10.8446 16.2675 -3.53977 
724 1 3.61677 10.843 18.0743 -3.5403 
725 1 9.0375 10.8453 16.2675 -3.54065 
726 1 7.23017 10.8451 18.0748 -3.54 
727 1 10.8448 10.8451 18.0748 -3.54 
728 1 12.6519 10.8446 16.2675 -3.53977 
729 1 14.4582 10.843 18.0743 -3.5403 
730 1 16.2656 10.8431 16.2675 -3.54048 
731 1 18.0741 10.8441 18.0747 -3.54024 
732 1 19.8825 10.8446 16.2675 -3.54012 
733 1 0.000724887 12.6518 16.2675 -3.54031 
734 1 1.80792 14.46 16.2675 -3.54012 
735 1 1.80837 12.6516 18.0747 -3.54024 
736 1 0.000462858 14.46 18.0747 -3.5403 
737 1 3.61544 12.652 16.2675 -3.54005 
738 1 5.42249 14.46 16.2675 -3.5402 
739 1 5.42265 12.6524 18.0749 -3.54007 
740 1 3.6152 14.46 18.0749 -3.54009 
741 1 7.23001 12.6527 16.2675 -3.54026 
742 1 9.0375 14.46 16.2675 -3.54022 
743 1 9.0375 12.6527 18.075 -3.54026 
744 1 7.22997 14.46 18.075 -3.54022 
745 1 10.845 12.6527 16.2675 -3.54026 
746 1 10.845 14.46 18.075 -3.54022 