ITEM: TIMESTEP
25
ITEM: NUMBER OF ATOMS
936
ITEM: BOX BOUNDS ss pp pp
-2.1690000000000004e-03 2.1692169000000000e+01
0.0000000000000000e+00 2.1690000000000001e+01
0.0000000000000000e+00 2.1690000000000001e+01
ITEM: ATOMS id type x y z c_pea 
1 1 0.0411692 9.71098e-16 -1.47495e-15 -3.03278 
2 1 1.81833 1.8075 6.2521e-16 -3.4965 
3 1 1.81833 1.48991e-15 1.8075 -3.4965 
4 1 0.0411692 1.8075 1.8075 -3.03278 
5 1 3.61527 4.60789e-16 -6.55012e-16 -3.54184 
6 1 5.42264 1.8075 2.01414e-17 -3.5411 
7 1 5.42264 1.36715e-15 1.8075 -3.5411 
8 1 3.61527 1.8075 1.8075 -3.54184 
9 1 7.23018 9.20094e-16 4.97077e-18 -3.54023 
10 1 9.03759 1.8075 5.86297e-16 -3.54021 
11 1 9.03759 9.09587e-16 1.8075 -3.54021 
12 1 7.23018 1.8075 1.8075 -3.54023 
13 1 10.845 -2.00102e-15 -5.1724e-18 -3.54022 
14 1 12.6524 1.8075 -9.62565e-16 -3.54021 
15 1 12.6524 1.42768e-15 1.8075 -3.54021 
16 1 10.845 1.8075 1.8075 -3.54022 
17 1 14.4598 2.19438e-15 1.30359e-15 -3.54023 
18 1 16.2674 1.8075 1.88741e-15 -3.5411 
19 1 16.2674 4.1582e-16 1.8075 -3.5411 
20 1 14.4598 1.8075 1.8075 -3.54023 
21 1 18.0747 1.40082e-16 -7.17863e-16 -3.54184 
22 1 19.8717 1.8075 -8.47297e-16 -3.4965 
23 1 19.8717 8.1652e-16 1.8075 -3.4965 
24 1 18.0747 1.8075 1.8075 -3.54184 
25 1 21.6488 1.68953e-15 2.29057e-15 -3.03278 
26 1 21.6488 1.8075 1.8075 -3.03278 
27 1 0.0411692 3.615 1.93508e-15 -3.03278 
28 1 1.81833 5.4225 1.04474e-15 -3.4965 
29 1 1.81833 3.615 1.8075 -3.4965 
30 1 0.0411692 5.4225 1.8075 -3.03278 
31 1 3.61527 3.615 2.34202e-16 -3.54184 
32 1 5.42264 5.4225 -1.63816e-15 -3.5411 
33 1 5.42264 3.615 1.8075 -3.5411 
34 1 3.61527 5.4225 1.8075 -3.54184 
35 1 7.23018 3.615 1.9095e-15 -3.54023 
36 1 9.03759 5.4225 -1.98625e-15 -3.54021 
37 1 9.03759 3.615 1.8075 -3.54021 
38 1 7.23018 5.4225 1.8075 -3.54023 
39 1 10.845 3.615 4.5686e-16 -3.54022 
40 1 12.6524 5.4225 2.64253e-16 -3.54021 
41 1 12.6524 3.615 1.8075 -3.54021 
42 1 10.845 5.4225 1.8075 -3.54022 
43 1 14.4598 3.615 1.54887e-15 -3.54023 
44 1 16.2674 5.4225 -1.90104e-16 -3.5411 
45 1 16.2674 3.615 1.8075 -3.5411 
46 1 14.4598 5.4225 1.8075 -3.54023 
47 1 18.0747 3.615 -3.13729e-15 -3.54184 
48 1 19.8717 5.4225 -8.23897e-16 -3.4965 
49 1 19.8717 3.615 1.8075 -3.4965 
50 1 18.0747 5.4225 1.8075 -3.54184 
51 1 21.6488 3.615 -1.12778e-15 -3.03278 
52 1 21.6488 5.4225 1.8075 -3.03278 
53 1 0.0411692 7.23 5.05781e-16 -3.03278 
54 1 1.81833 9.0375 -1.43559e-15 -3.4965 
55 1 1.81833 7.23 1.8075 -3.4965 
56 1 0.0411692 9.0375 1.8075 -3.03278 
57 1 3.61527 7.23 1.53379e-15 -3.54184 
58 1 5.42264 9.0375 -1.8911e-17 -3.5411 
59 1 5.42264 7.23 1.8075 -3.5411 
60 1 3.61527 9.0375 1.8075 -3.54184 
61 1 7.23018 7.23 3.8503e-16 -3.54023 
62 1 9.03759 9.0375 2.18379e-17 -3.54021 
63 1 9.03759 7.23 1.8075 -3.54021 
64 1 7.23018 9.0375 1.8075 -3.54023 
65 1 10.845 7.23 1.38542e-15 -3.54022 
66 1 12.6524 9.0375 5.49932e-16 -3.54021 
67 1 12.6524 7.23 1.8075 -3.54021 
68 1 10.845 9.0375 1.8075 -3.54022 
69 1 14.4598 7.23 1.35285e-15 -3.54023 
70 1 16.2674 9.0375 2.53528e-15 -3.5411 
71 1 16.2674 7.23 1.8075 -3.5411 
72 1 14.4598 9.0375 1.8075 -3.54023 
73 1 18.0747 7.23 -3.63251e-15 -3.54184 
74 1 19.8717 9.0375 3.69944e-16 -3.4965 
75 1 19.8717 7.23 1.8075 -3.4965 
76 1 18.0747 9.0375 1.8075 -3.54184 
77 1 21.6488 7.23 -6.63592e-16 -3.03278 
78 1 21.6488 9.0375 1.8075 -3.03278 
79 1 0.0411692 10.845 4.20348e-16 -3.03278 
80 1 1.81833 12.6525 6.743e-16 -3.4965 
81 1 1.81833 10.845 1.8075 -3.4965 
82 1 0.0411692 12.6525 1.8075 -3.03278 
83 1 3.61527 10.845 6.38571e-16 -3.54184 
84 1 5.42264 12.6525 1.10569e-15 -3.5411 
85 1 5.42264 10.845 1.8075 -3.5411 
86 1 3.61527 12.6525 1.8075 -3.54184 
87 1 7.23018 10.845 -8.20114e-16 -3.54023 
88 1 9.03759 12.6525 8.83422e-16 -3.54021 
89 1 9.03759 10.845 1.8075 -3.54021 
90 1 7.23018 12.6525 1.8075 -3.54023 
91 1 10.845 10.845 -3.64897e-16 -3.54022 
92 1 12.6524 12.6525 -1.53851e-15 -3.54021 
93 1 12.6524 10.845 1.8075 -3.54021 
94 1 10.845 12.6525 1.8075 -3.54022 
95 1 14.4598 10.845 -1.24033e-15 -3.54023 
96 1 16.2674 12.6525 3.5203e-16 -3.5411 
97 1 16.2674 10.845 1.8075 -3.5411 
98 1 14.4598 12.6525 1.8075 -3.54023 
99 1 18.0747 10.845 -2.12935e-15 -3.54184 
100 1 19.8717 12.6525 1.53019e-15 -3.4965 
101 1 19.8717 10.845 1.8075 -3.4965 
102 1 18.0747 12.6525 1.8075 -3.54184 
103 1 21.6488 10.845 -2.51043e-15 -3.03278 
104 1 21.6488 12.6525 1.8075 -3.03278 
105 1 0.0411692 14.46 1.62178e-15 -3.03278 
106 1 1.81833 16.2675 -4.46308e-16 -3.4965 
107 1 1.81833 14.46 1.8075 -3.4965 
108 1 0.0411692 16.2675 1.8075 -3.03278 
109 1 3.61527 14.46 9.34614e-16 -3.54184 
110 1 5.42264 16.2675 -1.21596e-15 -3.5411 
111 1 5.42264 14.46 1.8075 -3.5411 
112 1 3.61527 16.2675 1.8075 -3.54184 
113 1 7.23018 14.46 8.83042e-17 -3.54023 
114 1 9.03759 16.2675 -9.06777e-16 -3.54021 
115 1 9.03759 14.46 1.8075 -3.54021 
116 1 7.23018 16.2675 1.8075 -3.54023 
117 1 10.845 14.46 2.88968e-17 -3.54022 
118 1 12.6524 16.2675 -2.54264e-16 -3.54021 
119 1 12.6524 14.46 1.8075 -3.54021 
120 1 10.845 16.2675 1.8075 -3.54022 
121 1 14.4598 14.46 2.9461e-15 -3.54023 
122 1 16.2674 16.2675 -2.11849e-15 -3.5411 
123 1 16.2674 14.46 1.8075 -3.5411 
124 1 14.4598 16.2675 1.8075 -3.54023 
125 1 18.0747 14.46 -2.34709e-15 -3.54184 
126 1 19.8717 16.2675 9.74158e-16 -3.4965 
127 1 19.8717 14.46 1.8075 -3.4965 
128 1 18.0747 16.2675 1.8075 -3.54184 
129 1 21.6488 14.46 -2.02878e-15 -3.03278 
130 1 21.6488 16.2675 1.8075 -3.03278 
131 1 0.0411692 18.075 1.44037e-17 -3.03278 
132 1 1.81833 19.8825 7.90677e-16 -3.4965 
133 1 1.81833 18.075 1.8075 -3.4965 
134 1 0.0411692 19.8825 1.8075 -3.03278 
135 1 3.61527 18.075 1.47039e-15 -3.54184 
136 1 5.42264 19.8825 -1.29177e-17 -3.5411 
137 1 5.42264 18.075 1.8075 -3.5411 
138 1 3.61527 19.8825 1.8075 -3.54184 
139 1 7.23018 18.075 1.8464e-15 -3.54023 
140 1 9.03759 19.8825 2.50748e-15 -3.54021 
141 1 9.03759 18.075 1.8075 -3.54021 
142 1 7.23018 19.8825 1.8075 -3.54023 
143 1 10.845 18.075 3.23786e-16 -3.54022 
144 1 12.6524 19.8825 1.95545e-15 -3.54021 
145 1 12.6524 18.075 1.8075 -3.54021 
146 1 10.845 19.8825 1.8075 -3.54022 
147 1 14.4598 18.075 2.79684e-15 -3.54023 
148 1 16.2674 19.8825 2.73813e-16 -3.5411 
149 1 16.2674 18.075 1.8075 -3.5411 
150 1 14.4598 19.8825 1.8075 -3.54023 
151 1 18.0747 18.075 -5.76427e-16 -3.54184 
152 1 19.8717 19.8825 1.89396e-15 -3.4965 
153 1 19.8717 18.075 1.8075 -3.4965 
154 1 18.0747 19.8825 1.8075 -3.54184 
155 1 21.6488 18.075 -2.4904e-16 -3.03278 
156 1 21.6488 19.8825 1.8075 -3.03278 
157 1 0.0411692 4.97406e-16 3.615 -3.03278 
158 1 1.81833 1.8075 3.615 -3.4965 
159 1 1.81833 -3.85543e-16 5.4225 -3.4965 
160 1 0.0411692 1.8075 5.4225 -3.03278 
161 1 3.61527 1.84891e-15 3.615 -3.54184 
162 1 5.42264 1.8075 3.615 -3.5411 
163 1 5.42264 -1.40225e-16 5.4225 -3.5411 
164 1 3.61527 1.8075 5.4225 -3.54184 
165 1 7.23018 2.58753e-17 3.615 -3.54023 
166 1 9.03759 1.8075 3.615 -3.54021 
167 1 9.03759 9.07987e-16 5.4225 -3.54021 
168 1 7.23018 1.8075 5.4225 -3.54023 
169 1 10.845 -1.10074e-15 3.615 -3.54022 
170 1 12.6524 1.8075 3.615 -3.54021 
171 1 12.6524 1.4934e-16 5.4225 -3.54021 
172 1 10.845 1.8075 5.4225 -3.54022 
173 1 14.4598 7.03646e-17 3.615 -3.54023 
174 1 16.2674 1.8075 3.615 -3.5411 
175 1 16.2674 3.20425e-15 5.4225 -3.5411 
176 1 14.4598 1.8075 5.4225 -3.54023 
177 1 18.0747 -5.06893e-16 3.615 -3.54184 
178 1 19.8717 1.8075 3.615 -3.4965 
179 1 19.8717 1.44882e-15 5.4225 -3.4965 
180 1 18.0747 1.8075 5.4225 -3.54184 
181 1 21.6488 1.09263e-15 3.615 -3.03278 
182 1 21.6488 1.8075 5.4225 -3.03278 
183 1 0.0411692 3.615 3.615 -3.03278 
184 1 1.81833 5.4225 3.615 -3.4965 
185 1 1.81833 3.615 5.4225 -3.4965 
186 1 0.0411692 5.4225 5.4225 -3.03278 
187 1 3.61527 3.615 3.615 -3.54184 
188 1 5.42264 5.4225 3.615 -3.5411 
189 1 5.42264 3.615 5.4225 -3.5411 
190 1 3.61527 5.4225 5.4225 -3.54184 
191 1 7.23018 3.615 3.615 -3.54023 
192 1 9.03759 5.4225 3.615 -3.54021 
193 1 9.03759 3.615 5.4225 -3.54021 
194 1 7.23018 5.4225 5.4225 -3.54023 
195 1 10.845 3.615 3.615 -3.54022 
196 1 12.6524 5.4225 3.615 -3.54021 
197 1 12.6524 3.615 5.4225 -3.54021 
198 1 10.845 5.4225 5.4225 -3.54022 
199 1 14.4598 3.615 3.615 -3.54023 
200 1 16.2674 5.4225 3.615 -3.5411 
201 1 16.2674 3.615 5.4225 -3.5411 
202 1 14.4598 5.4225 5.4225 -3.54023 
203 1 18.0747 3.615 3.615 -3.54184 
204 1 19.8717 5.4225 3.615 -3.4965 
205 1 19.8717 3.615 5.4225 -3.4965 
206 1 18.0747 5.4225 5.4225 -3.54184 
207 1 21.6488 3.615 3.615 -3.03278 
208 1 21.6488 5.4225 5.4225 -3.03278 
209 1 0.0411692 7.23 3.615 -3.03278 
210 1 1.81833 9.0375 3.615 -3.4965 
211 1 1.81833 7.23 5.4225 -3.4965 
212 1 0.0411692 9.0375 5.4225 -3.03278 
213 1 3.61527 7.23 3.615 -3.54184 
214 1 5.42264 9.0375 3.615 -3.5411 
215 1 5.42264 7.23 5.4225 -3.5411 
216 1 3.61527 9.0375 5.4225 -3.54184 
217 1 7.23018 7.23 3.615 -3.54023 
218 1 9.03759 9.0375 3.615 -3.54021 
219 1 9.03759 7.23 5.4225 -3.54021 
220 1 7.23018 9.0375 5.4225 -3.54023 
221 1 10.845 7.23 3.615 -3.54022 
222 1 12.6524 9.0375 3.615 -3.54021 
223 1 12.6524 7.23 5.4225 -3.54021 
224 1 10.845 9.0375 5.4225 -3.54022 
225 1 14.4598 7.23 3.615 -3.54023 
226 1 16.2674 9.0375 3.615 -3.5411 
227 1 16.2674 7.23 5.4225 -3.5411 
228 1 14.4598 9.0375 5.4225 -3.54023 
229 1 18.0747 7.23 3.615 -3.54184 
230 1 19.8717 9.0375 3.615 -3.4965 
231 1 19.8717 7.23 5.4225 -3.4965 
232 1 18.0747 9.0375 5.4225 -3.54184 
233 1 21.6488 7.23 3.615 -3.03278 
234 1 21.6488 9.0375 5.4225 -3.03278 
235 1 0.0411692 10.845 3.615 -3.03278 
236 1 1.81833 12.6525 3.615 -3.4965 
237 1 1.81833 10.845 5.4225 -3.4965 
238 1 0.0411692 12.6525 5.4225 -3.03278 
239 1 3.61527 10.845 3.615 -3.54184 
240 1 5.42264 12.6525 3.615 -3.5411 
241 1 5.42264 10.845 5.4225 -3.5411 
242 1 3.61527 12.6525 5.4225 -3.54184 
243 1 7.23018 10.845 3.615 -3.54023 
244 1 9.03759 12.6525 3.615 -3.54021 
245 1 9.03759 10.845 5.4225 -3.54021 
246 1 7.23018 12.6525 5.4225 -3.54023 
247 1 10.845 10.845 3.615 -3.54022 
248 1 12.6524 12.6525 3.615 -3.54021 
249 1 12.6524 10.845 5.4225 -3.54021 
250 1 10.845 12.6525 5.4225 -3.54022 
251 1 14.4598 10.845 3.615 -3.54023 
252 1 16.2674 12.6525 3.615 -3.5411 
253 1 16.2674 10.845 5.4225 -3.5411 
254 1 14.4598 12.6525 5.4225 -3.54023 
255 1 18.0747 10.845 3.615 -3.54184 
256 1 19.8717 12.6525 3.615 -3.4965 
257 1 19.8717 10.845 5.4225 -3.4965 
258 1 18.0747 12.6525 5.4225 -3.54184 
259 1 21.6488 10.845 3.615 -3.03278 
260 1 21.6488 12.6525 5.4225 -3.03278 
261 1 0.0411692 14.46 3.615 -3.03278 
262 1 1.81833 16.2675 3.615 -3.4965 
263 1 1.81833 14.46 5.4225 -3.4965 
264 1 0.0411692 16.2675 5.4225 -3.03278 
265 1 3.61527 14.46 3.615 -3.54184 
266 1 5.42264 16.2675 3.615 -3.5411 
267 1 5.42264 14.46 5.4225 -3.5411 
268 1 3.61527 16.2675 5.4225 -3.54184 
269 1 7.23018 14.46 3.615 -3.54023 
270 1 9.03759 16.2675 3.615 -3.54021 
271 1 9.03759 14.46 5.4225 -3.54021 
272 1 7.23018 16.2675 5.4225 -3.54023 
273 1 10.845 14.46 3.615 -3.54022 
274 1 12.6524 16.2675 3.615 -3.54021 
275 1 12.6524 14.46 5.4225 -3.54021 
276 1 10.845 16.2675 5.4225 -3.54022 
277 1 14.4598 14.46 3.615 -3.54023 
278 1 16.2674 16.2675 3.615 -3.5411 
279 1 16.2674 14.46 5.4225 -3.5411 
280 1 14.4598 16.2675 5.4225 -3.54023 
281 1 18.0747 14.46 3.615 -3.54184 
282 1 19.8717 16.2675 3.615 -3.4965 
283 1 19.8717 14.46 5.4225 -3.4965 
284 1 18.0747 16.2675 5.4225 -3.54184 
285 1 21.6488 14.46 3.615 -3.03278 
286 1 21.6488 16.2675 5.4225 -3.03278 
287 1 0.0411692 18.075 3.615 -3.03278 
288 1 1.81833 19.8825 3.615 -3.4965 
289 1 1.81833 18.075 5.4225 -3.4965 
290 1 0.0411692 19.8825 5.4225 -3.03278 
291 1 3.61527 18.075 3.615 -3.54184 
292 1 5.42264 19.8825 3.615 -3.5411 
293 1 5.42264 18.075 5.4225 -3.5411 
294 1 3.61527 19.8825 5.4225 -3.54184 
295 1 7.23018 18.075 3.615 -3.54023 
296 1 9.03759 19.8825 3.615 -3.54021 
297 1 9.03759 18.075 5.4225 -3.54021 
298 1 7.23018 19.8825 5.4225 -3.54023 
299 1 10.845 18.075 3.615 -3.54022 
300 1 12.6524 19.8825 3.615 -3.54021 
301 1 12.6524 18.075 5.4225 -3.54021 
302 1 10.845 19.8825 5.4225 -3.54022 
303 1 14.4598 18.075 3.615 -3.54023 
304 1 16.2674 19.8825 3.615 -3.5411 
305 1 16.2674 18.075 5.4225 -3.5411 
306 1 14.4598 19.8825 5.4225 -3.54023 
307 1 18.0747 18.075 3.615 -3.54184 
308 1 19.8717 19.8825 3.615 -3.4965 
309 1 19.8717 18.075 5.4225 -3.4965 
310 1 18.0747 19.8825 5.4225 -3.54184 
311 1 21.6488 18.075 3.615 -3.03278 
312 1 21.6488 19.8825 5.4225 -3.03278 
313 1 0.0411692 -1.84562e-15 7.23 -3.03278 
314 1 1.81833 1.8075 7.23 -3.4965 
315 1 1.81833 2.77101e-15 9.0375 -3.4965 
316 1 0.0411692 1.8075 9.0375 -3.03278 
317 1 3.61527 -5.65491e-16 7.23 -3.54184 
318 1 5.42264 1.8075 7.23 -3.5411 
319 1 5.42264 -6.34409e-16 9.0375 -3.5411 
320 1 3.61527 1.8075 9.0375 -3.54184 
321 1 7.23018 1.43877e-15 7.23 -3.54023 
322 1 9.03759 1.8075 7.23 -3.54021 
323 1 9.03759 8.94647e-16 9.0375 -3.54021 
324 1 7.23018 1.8075 9.0375 -3.54023 
325 1 10.845 -1.33239e-15 7.23 -3.54022 
326 1 12.6524 1.8075 7.23 -3.54021 
327 1 12.6524 1.49079e-15 9.0375 -3.54021 
328 1 10.845 1.8075 9.0375 -3.54022 
329 1 14.4598 -8.37968e-16 7.23 -3.54023 
330 1 16.2674 1.8075 7.23 -3.5411 
331 1 16.2674 3.2653e-15 9.0375 -3.5411 
332 1 14.4598 1.8075 9.0375 -3.54023 
333 1 18.0747 -1.49155e-15 7.23 -3.54184 
334 1 19.8717 1.8075 7.23 -3.4965 
335 1 19.8717 -4.95939e-16 9.0375 -3.4965 
336 1 18.0747 1.8075 9.0375 -3.54184 
337 1 21.6488 -1.75402e-16 7.23 -3.03278 
338 1 21.6488 1.8075 9.0375 -3.03278 
339 1 0.0411692 3.615 7.23 -3.03278 
340 1 1.81833 5.4225 7.23 -3.4965 
341 1 1.81833 3.615 9.0375 -3.4965 
342 1 0.0411692 5.4225 9.0375 -3.03278 
343 1 3.61527 3.615 7.23 -3.54184 
344 1 5.42264 5.4225 7.23 -3.5411 
345 1 5.42264 3.615 9.0375 -3.5411 
346 1 3.61527 5.4225 9.0375 -3.54184 
347 1 7.23018 3.615 7.23 -3.54023 
348 1 9.03759 5.4225 7.23 -3.54021 
349 1 9.03759 3.615 9.0375 -3.54021 
350 1 7.23018 5.4225 9.0375 -3.54023 
351 1 10.845 3.615 7.23 -3.54022 
352 1 12.6524 5.4225 7.23 -3.54021 
353 1 12.6524 3.615 9.0375 -3.54021 
354 1 10.845 5.4225 9.0375 -3.54022 
355 1 14.4598 3.615 7.23 -3.54023 
356 1 16.2674 5.4225 7.23 -3.5411 
357 1 16.2674 3.615 9.0375 -3.5411 
358 1 14.4598 5.4225 9.0375 -3.54023 
359 1 18.0747 3.615 7.23 -3.54184 
360 1 19.8717 5.4225 7.23 -3.4965 
361 1 19.8717 3.615 9.0375 -3.4965 
362 1 18.0747 5.4225 9.0375 -3.54184 
363 1 21.6488 3.615 7.23 -3.03278 
364 1 21.6488 5.4225 9.0375 -3.03278 
365 1 0.0411692 7.23 7.23 -3.03278 
366 1 1.81833 9.0375 7.23 -3.4965 
367 1 1.81833 7.23 9.0375 -3.4965 
368 1 0.0411692 9.0375 9.0375 -3.03278 
369 1 3.61527 7.23 7.23 -3.54184 
370 1 5.42264 9.0375 7.23 -3.5411 
371 1 5.42264 7.23 9.0375 -3.5411 
372 1 3.61527 9.0375 9.0375 -3.54184 
373 1 7.23018 7.23 7.23 -3.54023 
374 1 9.03759 9.0375 7.23 -3.54021 
375 1 9.03759 7.23 9.0375 -3.54021 
376 1 7.23018 9.0375 9.0375 -3.54023 
377 1 10.845 7.23 7.23 -3.54022 
378 1 12.6524 9.0375 7.23 -3.54021 
379 1 12.6524 7.23 9.0375 -3.54021 
380 1 10.845 9.0375 9.0375 -3.54022 
381 1 14.4598 7.23 7.23 -3.54023 
382 1 16.2674 9.0375 7.23 -3.5411 
383 1 16.2674 7.23 9.0375 -3.5411 
384 1 14.4598 9.0375 9.0375 -3.54023 
385 1 18.0747 7.23 7.23 -3.54184 
386 1 19.8717 9.0375 7.23 -3.4965 
387 1 19.8717 7.23 9.0375 -3.4965 
388 1 18.0747 9.0375 9.0375 -3.54184 
389 1 21.6488 7.23 7.23 -3.03278 
390 1 21.6488 9.0375 9.0375 -3.03278 
391 1 0.0411692 10.845 7.23 -3.03278 
392 1 1.81833 12.6525 7.23 -3.4965 
393 1 1.81833 10.845 9.0375 -3.4965 
394 1 0.0411692 12.6525 9.0375 -3.03278 
395 1 3.61527 10.845 7.23 -3.54184 
396 1 5.42264 12.6525 7.23 -3.5411 
397 1 5.42264 10.845 9.0375 -3.5411 
398 1 3.61527 12.6525 9.0375 -3.54184 
399 1 7.23018 10.845 7.23 -3.54023 
400 1 9.03759 12.6525 7.23 -3.54021 
401 1 9.03759 10.845 9.0375 -3.54021 
402 1 7.23018 12.6525 9.0375 -3.54023 
403 1 10.845 10.845 7.23 -3.54022 
404 1 12.6524 12.6525 7.23 -3.54021 
405 1 12.6524 10.845 9.0375 -3.54021 
406 1 10.845 12.6525 9.0375 -3.54022 
407 1 14.4598 10.845 7.23 -3.54023 
408 1 16.2674 12.6525 7.23 -3.5411 
409 1 16.2674 10.845 9.0375 -3.5411 
410 1 14.4598 12.6525 9.0375 -3.54023 
411 1 18.0747 10.845 7.23 -3.54184 
412 1 19.8717 12.6525 7.23 -3.4965 
413 1 19.8717 10.845 9.0375 -3.4965 
414 1 18.0747 12.6525 9.0375 -3.54184 
415 1 21.6488 10.845 7.23 -3.03278 
416 1 21.6488 12.6525 9.0375 -3.03278 
417 1 0.0411692 14.46 7.23 -3.03278 
418 1 1.81833 16.2675 7.23 -3.4965 
419 1 1.81833 14.46 9.0375 -3.4965 
420 1 0.0411692 16.2675 9.0375 -3.03278 
421 1 3.61527 14.46 7.23 -3.54184 
422 1 5.42264 16.2675 7.23 -3.5411 
423 1 5.42264 14.46 9.0375 -3.5411 
424 1 3.61527 16.2675 9.0375 -3.54184 
425 1 7.23018 14.46 7.23 -3.54023 
426 1 9.03759 16.2675 7.23 -3.54021 
427 1 9.03759 14.46 9.0375 -3.54021 
428 1 7.23018 16.2675 9.0375 -3.54023 
429 1 10.845 14.46 7.23 -3.54022 
430 1 12.6524 16.2675 7.23 -3.54021 
431 1 12.6524 14.46 9.0375 -3.54021 
432 1 10.845 16.2675 9.0375 -3.54022 
433 1 14.4598 14.46 7.23 -3.54023 
434 1 16.2674 16.2675 7.23 -3.5411 
435 1 16.2674 14.46 9.0375 -3.5411 
436 1 14.4598 16.2675 9.0375 -3.54023 
437 1 18.0747 14.46 7.23 -3.54184 
438 1 19.8717 16.2675 7.23 -3.4965 
439 1 19.8717 14.46 9.0375 -3.4965 
440 1 18.0747 16.2675 9.0375 -3.54184 
441 1 21.6488 14.46 7.23 -3.03278 
442 1 21.6488 16.2675 9.0375 -3.03278 
443 1 0.0411692 18.075 7.23 -3.03278 
444 1 1.81833 19.8825 7.23 -3.4965 
445 1 1.81833 18.075 9.0375 -3.4965 
446 1 0.0411692 19.8825 9.0375 -3.03278 
447 1 3.61527 18.075 7.23 -3.54184 
448 1 5.42264 19.8825 7.23 -3.5411 
449 1 5.42264 18.075 9.0375 -3.5411 
450 1 3.61527 19.8825 9.0375 -3.54184 
451 1 7.23018 18.075 7.23 -3.54023 
452 1 9.03759 19.8825 7.23 -3.54021 
453 1 9.03759 18.075 9.0375 -3.54021 
454 1 7.23018 19.8825 9.0375 -3.54023 
455 1 10.845 18.075 7.23 -3.54022 
456 1 12.6524 19.8825 7.23 -3.54021 
457 1 12.6524 18.075 9.0375 -3.54021 
458 1 10.845 19.8825 9.0375 -3.54022 
459 1 14.4598 18.075 7.23 -3.54023 
460 1 16.2674 19.8825 7.23 -3.5411 
461 1 16.2674 18.075 9.0375 -3.5411 
462 1 14.4598 19.8825 9.0375 -3.54023 
463 1 18.0747 18.075 7.23 -3.54184 
464 1 19.8717 19.8825 7.23 -3.4965 
465 1 19.8717 18.075 9.0375 -3.4965 
466 1 18.0747 19.8825 9.0375 -3.54184 
467 1 21.6488 18.075 7.23 -3.03278 
468 1 21.6488 19.8825 9.0375 -3.03278 
469 1 0.0411692 -4.53215e-16 10.845 -3.03278 
470 1 1.81833 1.8075 10.845 -3.4965 
471 1 1.81833 -4.52897e-16 12.6525 -3.4965 
472 1 0.0411692 1.8075 12.6525 -3.03278 
473 1 3.61527 9.80047e-16 10.845 -3.54184 
474 1 5.42264 1.8075 10.845 -3.5411 
475 1 5.42264 3.25874e-16 12.6525 -3.5411 
476 1 3.61527 1.8075 12.6525 -3.54184 
477 1 7.23018 -5.16202e-16 10.845 -3.54023 
478 1 9.03759 1.8075 10.845 -3.54021 
479 1 9.03759 2.81723e-16 12.6525 -3.54021 
480 1 7.23018 1.8075 12.6525 -3.54023 
481 1 10.845 3.3464e-16 10.845 -3.54022 
482 1 12.6524 1.8075 10.845 -3.54021 
483 1 12.6524 1.5066e-15 12.6525 -3.54021 
484 1 10.845 1.8075 12.6525 -3.54022 
485 1 14.4598 -4.48526e-16 10.845 -3.54023 
486 1 16.2674 1.8075 10.845 -3.5411 
487 1 16.2674 1.74737e-16 12.6525 -3.5411 
488 1 14.4598 1.8075 12.6525 -3.54023 
489 1 18.0747 -1.56102e-15 10.845 -3.54184 
490 1 19.8717 1.8075 10.845 -3.4965 
491 1 19.8717 -2.25695e-15 12.6525 -3.4965 
492 1 18.0747 1.8075 12.6525 -3.54184 
493 1 21.6488 -4.00904e-16 10.845 -3.03278 
494 1 21.6488 1.8075 12.6525 -3.03278 
495 1 0.0411692 3.615 10.845 -3.03278 
496 1 1.81833 5.4225 10.845 -3.4965 
497 1 1.81833 3.615 12.6525 -3.4965 
498 1 0.0411692 5.4225 12.6525 -3.03278 
499 1 3.61527 3.615 10.845 -3.54184 
500 1 5.42264 5.4225 10.845 -3.5411 
501 1 5.42264 3.615 12.6525 -3.5411 
502 1 3.61527 5.4225 12.6525 -3.54184 
503 1 7.23018 3.615 10.845 -3.54023 
504 1 9.03759 5.4225 10.845 -3.54021 
505 1 9.03759 3.615 12.6525 -3.54021 
506 1 7.23018 5.4225 12.6525 -3.54023 
507 1 10.845 3.615 10.845 -3.54022 
508 1 12.6524 5.4225 10.845 -3.54021 
509 1 12.6524 3.615 12.6525 -3.54021 
510 1 10.845 5.4225 12.6525 -3.54022 
511 1 14.4598 3.615 10.845 -3.54023 
512 1 16.2674 5.4225 10.845 -3.5411 
513 1 16.2674 3.615 12.6525 -3.5411 
514 1 14.4598 5.4225 12.6525 -3.54023 
515 1 18.0747 3.615 10.845 -3.54184 
516 1 19.8717 5.4225 10.845 -3.4965 
517 1 19.8717 3.615 12.6525 -3.4965 
518 1 18.0747 5.4225 12.6525 -3.54184 
519 1 21.6488 3.615 10.845 -3.03278 
520 1 21.6488 5.4225 12.6525 -3.03278 
521 1 0.0411692 7.23 10.845 -3.03278 
522 1 1.81833 9.0375 10.845 -3.4965 
523 1 1.81833 7.23 12.6525 -3.4965 
524 1 0.0411692 9.0375 12.6525 -3.03278 
525 1 3.61527 7.23 10.845 -3.54184 
526 1 5.42264 9.0375 10.845 -3.5411 
527 1 5.42264 7.23 12.6525 -3.5411 
528 1 3.61527 9.0375 12.6525 -3.54184 
529 1 7.23018 7.23 10.845 -3.54023 
530 1 9.03759 9.0375 10.845 -3.54021 
531 1 9.03759 7.23 12.6525 -3.54021 
532 1 7.23018 9.0375 12.6525 -3.54023 
533 1 10.845 7.23 10.845 -3.54022 
534 1 12.6524 9.0375 10.845 -3.54021 
535 1 12.6524 7.23 12.6525 -3.54021 
536 1 10.845 9.0375 12.6525 -3.54022 
537 1 14.4598 7.23 10.845 -3.54023 
538 1 16.2674 9.0375 10.845 -3.5411 
539 1 16.2674 7.23 12.6525 -3.5411 
540 1 14.4598 9.0375 12.6525 -3.54023 
541 1 18.0747 7.23 10.845 -3.54184 
542 1 19.8717 9.0375 10.845 -3.4965 
543 1 19.8717 7.23 12.6525 -3.4965 
544 1 18.0747 9.0375 12.6525 -3.54184 
545 1 21.6488 7.23 10.845 -3.03278 
546 1 21.6488 9.0375 12.6525 -3.03278 
547 1 0.0411692 10.845 10.845 -3.03278 
548 1 1.81833 12.6525 10.845 -3.4965 
549 1 1.81833 10.845 12.6525 -3.4965 
550 1 0.0411692 12.6525 12.6525 -3.03278 
551 1 3.61527 10.845 10.845 -3.54184 
552 1 5.42264 12.6525 10.845 -3.5411 
553 1 5.42264 10.845 12.6525 -3.5411 
554 1 3.61527 12.6525 12.6525 -3.54184 
555 1 7.23018 10.845 10.845 -3.54023 
556 1 9.03759 12.6525 10.845 -3.54021 
557 1 9.03759 10.845 12.6525 -3.54021 
558 1 7.23018 12.6525 12.6525 -3.54023 
559 1 10.845 10.845 10.845 -3.54022 
560 1 12.6524 12.6525 10.845 -3.54021 
561 1 12.6524 10.845 12.6525 -3.54021 
562 1 10.845 12.6525 12.6525 -3.54022 
563 1 14.4598 10.845 10.845 -3.54023 
564 1 16.2674 12.6525 10.845 -3.5411 
565 1 16.2674 10.845 12.6525 -3.5411 
566 1 14.4598 12.6525 12.6525 -3.54023 
567 1 18.0747 10.845 10.845 -3.54184 
568 1 19.8717 12.6525 10.845 -3.4965 
569 1 19.8717 10.845 12.6525 -3.4965 
570 1 18.0747 12.6525 12.6525 -3.54184 
571 1 21.6488 10.845 10.845 -3.03278 
572 1 21.6488 12.6525 12.6525 -3.03278 
573 1 0.0411692 14.46 10.845 -3.03278 
574 1 1.81833 16.2675 10.845 -3.4965 
575 1 1.81833 14.46 12.6525 -3.4965 
576 1 0.0411692 16.2675 12.6525 -3.03278 
577 1 3.61527 14.46 10.845 -3.54184 
578 1 5.42264 16.2675 10.845 -3.5411 
579 1 5.42264 14.46 12.6525 -3.5411 
580 1 3.61527 16.2675 12.6525 -3.54184 
581 1 7.23018 14.46 10.845 -3.54023 
582 1 9.03759 16.2675 10.845 -3.54021 
583 1 9.03759 14.46 12.6525 -3.54021 
584 1 7.23018 16.2675 12.6525 -3.54023 
585 1 10.845 14.46 10.845 -3.54022 
586 1 12.6524 16.2675 10.845 -3.54021 
587 1 12.6524 14.46 12.6525 -3.54021 
588 1 10.845 16.2675 12.6525 -3.54022 
589 1 14.4598 14.46 10.845 -3.54023 
590 1 16.2674 16.2675 10.845 -3.5411 
591 1 16.2674 14.46 12.6525 -3.5411 
592 1 14.4598 16.2675 12.6525 -3.54023 
593 1 18.0747 14.46 10.845 -3.54184 
594 1 19.8717 16.2675 10.845 -3.4965 
595 1 19.8717 14.46 12.6525 -3.4965 
596 1 18.0747 16.2675 12.6525 -3.54184 
597 1 21.6488 14.46 10.845 -3.03278 
598 1 21.6488 16.2675 12.6525 -3.03278 
599 1 0.0411692 18.075 10.845 -3.03278 
600 1 1.81833 19.8825 10.845 -3.4965 
601 1 1.81833 18.075 12.6525 -3.4965 
602 1 0.0411692 19.8825 12.6525 -3.03278 
603 1 3.61527 18.075 10.845 -3.54184 
604 1 5.42264 19.8825 10.845 -3.5411 
605 1 5.42264 18.075 12.6525 -3.5411 
606 1 3.61527 19.8825 12.6525 -3.54184 
607 1 7.23018 18.075 10.845 -3.54023 
608 1 9.03759 19.8825 10.845 -3.54021 
609 1 9.03759 18.075 12.6525 -3.54021 
610 1 7.23018 19.8825 12.6525 -3.54023 
611 1 10.845 18.075 10.845 -3.54022 
612 1 12.6524 19.8825 10.845 -3.54021 
613 1 12.6524 18.075 12.6525 -3.54021 
614 1 10.845 19.8825 12.6525 -3.54022 
615 1 14.4598 18.075 10.845 -3.54023 
616 1 16.2674 19.8825 10.845 -3.5411 
617 1 16.2674 18.075 12.6525 -3.5411 
618 1 14.4598 19.8825 12.6525 -3.54023 
619 1 18.0747 18.075 10.845 -3.54184 
620 1 19.8717 19.8825 10.845 -3.4965 
621 1 19.8717 18.075 12.6525 -3.4965 
622 1 18.0747 19.8825 12.6525 -3.54184 
623 1 21.6488 18.075 10.845 -3.03278 
624 1 21.6488 19.8825 12.6525 -3.03278 
625 1 0.0411692 7.92186e-16 14.46 -3.03278 
626 1 1.81833 1.8075 14.46 -3.4965 
627 1 1.81833 -8.02146e-16 16.2675 -3.4965 
628 1 0.0411692 1.8075 16.2675 -3.03278 
629 1 3.61527 -3.49993e-17 14.46 -3.54184 
630 1 5.42264 1.8075 14.46 -3.5411 
631 1 5.42264 -2.35559e-15 16.2675 -3.5411 
632 1 3.61527 1.8075 16.2675 -3.54184 
633 1 7.23018 1.88249e-15 14.46 -3.54023 
634 1 9.03759 1.8075 14.46 -3.54021 
635 1 9.03759 -2.25199e-15 16.2675 -3.54021 
636 1 7.23018 1.8075 16.2675 -3.54023 
637 1 10.845 6.33034e-16 14.46 -3.54022 
638 1 12.6524 1.8075 14.46 -3.54021 
639 1 12.6524 7.67751e-16 16.2675 -3.54021 
640 1 10.845 1.8075 16.2675 -3.54022 
641 1 14.4598 -8.56526e-18 14.46 -3.54023 
642 1 16.2674 1.8075 14.46 -3.5411 
643 1 16.2674 3.29534e-15 16.2675 -3.5411 
644 1 14.4598 1.8075 16.2675 -3.54023 
645 1 18.0747 2.2985e-16 14.46 -3.54184 
646 1 19.8717 1.8075 14.46 -3.4965 
647 1 19.8717 -6.85446e-16 16.2675 -3.4965 
648 1 18.0747 1.8075 16.2675 -3.54184 
649 1 21.6488 -8.89106e-17 14.46 -3.03278 
650 1 21.6488 1.8075 16.2675 -3.03278 
651 1 0.0411692 3.615 14.46 -3.03278 
652 1 1.81833 5.4225 14.46 -3.4965 
653 1 1.81833 3.615 16.2675 -3.4965 
654 1 0.0411692 5.4225 16.2675 -3.03278 
655 1 3.61527 3.615 14.46 -3.54184 
656 1 5.42264 5.4225 14.46 -3.5411 
657 1 5.42264 3.615 16.2675 -3.5411 
658 1 3.61527 5.4225 16.2675 -3.54184 
659 1 7.23018 3.615 14.46 -3.54023 
660 1 9.03759 5.4225 14.46 -3.54021 
661 1 9.03759 3.615 16.2675 -3.54021 
662 1 7.23018 5.4225 16.2675 -3.54023 
663 1 10.845 3.615 14.46 -3.54022 
664 1 12.6524 5.4225 14.46 -3.54021 
665 1 12.6524 3.615 16.2675 -3.54021 
666 1 10.845 5.4225 16.2675 -3.54022 
667 1 14.4598 3.615 14.46 -3.54023 
668 1 16.2674 5.4225 14.46 -3.5411 
669 1 16.2674 3.615 16.2675 -3.5411 
670 1 14.4598 5.4225 16.2675 -3.54023 
671 1 18.0747 3.615 14.46 -3.54184 
672 1 19.8717 5.4225 14.46 -3.4965 
673 1 19.8717 3.615 16.2675 -3.4965 
674 1 18.0747 5.4225 16.2675 -3.54184 
675 1 21.6488 3.615 14.46 -3.03278 
676 1 21.6488 5.4225 16.2675 -3.03278 
677 1 0.0411692 7.23 14.46 -3.03278 
678 1 1.81833 9.0375 14.46 -3.4965 
679 1 1.81833 7.23 16.2675 -3.4965 
680 1 0.0411692 9.0375 16.2675 -3.03278 
681 1 3.61527 7.23 14.46 -3.54184 
682 1 5.42264 9.0375 14.46 -3.5411 
683 1 5.42264 7.23 16.2675 -3.5411 
684 1 3.61527 9.0375 16.2675 -3.54184 
685 1 7.23018 7.23 14.46 -3.54023 
686 1 9.03759 9.0375 14.46 -3.54021 
687 1 9.03759 7.23 16.2675 -3.54021 
688 1 7.23018 9.0375 16.2675 -3.54023 
689 1 10.845 7.23 14.46 -3.54022 
690 1 12.6524 9.0375 14.46 -3.54021 
691 1 12.6524 7.23 16.2675 -3.54021 
692 1 10.845 9.0375 16.2675 -3.54022 
693 1 14.4598 7.23 14.46 -3.54023 
694 1 16.2674 9.0375 14.46 -3.5411 
695 1 16.2674 7.23 16.2675 -3.5411 
696 1 14.4598 9.0375 16.2675 -3.54023 
697 1 18.0747 7.23 14.46 -3.54184 
698 1 19.8717 9.0375 14.46 -3.4965 
699 1 19.8717 7.23 16.2675 -3.4965 
700 1 18.0747 9.0375 16.2675 -3.54184 
701 1 21.6488 7.23 14.46 -3.03278 
702 1 21.6488 9.0375 16.2675 -3.03278 
703 1 0.0411692 10.845 14.46 -3.03278 
704 1 1.81833 12.6525 14.46 -3.4965 
705 1 1.81833 10.845 16.2675 -3.4965 
706 1 0.0411692 12.6525 16.2675 -3.03278 
707 1 3.61527 10.845 14.46 -3.54184 
708 1 5.42264 12.6525 14.46 -3.5411 
709 1 5.42264 10.845 16.2675 -3.5411 
710 1 3.61527 12.6525 16.2675 -3.54184 
711 1 7.23018 10.845 14.46 -3.54023 
712 1 9.03759 12.6525 14.46 -3.54021 
713 1 9.03759 10.845 16.2675 -3.54021 
714 1 7.23018 12.6525 16.2675 -3.54023 
715 1 10.845 10.845 14.46 -3.54022 
716 1 12.6524 12.6525 14.46 -3.54021 
717 1 12.6524 10.845 16.2675 -3.54021 
718 1 10.845 12.6525 16.2675 -3.54022 
719 1 14.4598 10.845 14.46 -3.54023 
720 1 16.2674 12.6525 14.46 -3.5411 
721 1 16.2674 10.845 16.2675 -3.5411 
722 1 14.4598 12.6525 16.2675 -3.54023 
723 1 18.0747 10.845 14.46 -3.54184 
724 1 19.8717 12.6525 14.46 -3.4965 
725 1 19.8717 10.845 16.2675 -3.4965 
726 1 18.0747 12.6525 16.2675 -3.54184 
727 1 21.6488 10.845 14.46 -3.03278 
728 1 21.6488 12.6525 16.2675 -3.03278 
729 1 0.0411692 14.46 14.46 -3.03278 
730 1 1.81833 16.2675 14.46 -3.4965 
731 1 1.81833 14.46 16.2675 -3.4965 
732 1 0.0411692 16.2675 16.2675 -3.03278 
733 1 3.61527 14.46 14.46 -3.54184 
734 1 5.42264 16.2675 14.46 -3.5411 
735 1 5.42264 14.46 16.2675 -3.5411 
736 1 3.61527 16.2675 16.2675 -3.54184 
737 1 7.23018 14.46 14.46 -3.54023 
738 1 9.03759 16.2675 14.46 -3.54021 
739 1 9.03759 14.46 16.2675 -3.54021 
740 1 7.23018 16.2675 16.2675 -3.54023 
741 1 10.845 14.46 14.46 -3.54022 
742 1 12.6524 16.2675 14.46 -3.54021 
743 1 12.6524 14.46 16.2675 -3.54021 
744 1 10.845 16.2675 16.2675 -3.54022 
745 1 14.4598 14.46 14.46 -3.54023 
746 1 16.2674 16.2675 14.46 -3.5411 
747 1 16.2674 14.46 16.2675 -3.5411 
748 1 14.4598 16.2675 16.2675 -3.54023 
749 1 18.0747 14.46 14.46 -3.54184 
750 1 19.8717 16.2675 14.46 -3.4965 
751 1 19.8717 14.46 16.2675 -3.4965 
752 1 18.0747 16.2675 16.2675 -3.54184 
753 1 21.6488 14.46 14.46 -3.03278 
754 1 21.6488 16.2675 16.2675 -3.03278 
755 1 0.0411692 18.075 14.46 -3.03278 
756 1 1.81833 19.8825 14.46 -3.4965 
757 1 1.81833 18.075 16.2675 -3.4965 
758 1 0.0411692 19.8825 16.2675 -3.03278 
759 1 3.61527 18.075 14.46 -3.54184 
760 1 5.42264 19.8825 14.46 -3.5411 
761 1 5.42264 18.075 16.2675 -3.5411 
762 1 3.61527 19.8825 16.2675 -3.54184 
763 1 7.23018 18.075 14.46 -3.54023 
764 1 9.03759 19.8825 14.46 -3.54021 
765 1 9.03759 18.075 16.2675 -3.54021 
766 1 7.23018 19.8825 16.2675 -3.54023 
767 1 10.845 18.075 14.46 -3.54022 
768 1 12.6524 19.8825 14.46 -3.54021 
769 1 12.6524 18.075 16.2675 -3.54021 
770 1 10.845 19.8825 16.2675 -3.54022 
771 1 14.4598 18.075 14.46 -3.54023 
772 1 16.2674 19.8825 14.46 -3.5411 
773 1 16.2674 18.075 16.2675 -3.5411 
774 1 14.4598 19.8825 16.2675 -3.54023 
775 1 18.0747 18.075 14.46 -3.54184 
776 1 19.8717 19.8825 14.46 -3.4965 